 vasp.5.4.1 05Feb16 (build Oct 24 2016 11:17:14) complex                        
  
 executed on v541-ifort1404-ompi- date 2017.07.27  15:23:34
 running on    8 total cores
 distrk:  each k-point on    8 cores,    1 groups
 distr:  one band on NCORES_PER_BAND=   1 cores,    8 groups


--------------------------------------------------------------------------------------------------------


 INCAR:
 POTCAR:   PAW_PBE Al 04Jan2001                   

 ----------------------------------------------------------------------------- 
|                                                                             |
|           W    W    AA    RRRRR   N    N  II  N    N   GGGG   !!!           |
|           W    W   A  A   R    R  NN   N  II  NN   N  G    G  !!!           |
|           W    W  A    A  R    R  N N  N  II  N N  N  G       !!!           |
|           W WW W  AAAAAA  RRRRR   N  N N  II  N  N N  G  GGG   !            |
|           WW  WW  A    A  R   R   N   NN  II  N   NN  G    G                |
|           W    W  A    A  R    R  N    N  II  N    N   GGGG   !!!           |
|                                                                             |
|      For optimal performance we recommend to set                            |
|        NCORE= 4 - approx SQRT( number of cores)                             |
|      NCORE specifies how many cores store one orbital (NPAR=cpu/NCORE).     |
|      This setting can  greatly improve the performance of VASP for DFT.     |
|      The default, NPAR=number of cores might be grossly inefficient         |
|      on modern multi-core architectures or massively parallel machines.     |
|      Do your own testing !!!!                                               |
|      Unfortunately you need to use the default for GW and RPA calculations. |
|      (for HF NCORE is supported but not extensively tested yet)             |
|                                                                             |
 ----------------------------------------------------------------------------- 

 POTCAR:   PAW_PBE Al 04Jan2001                   
   VRHFIN =Al: s2p1                                                             
   LEXCH  = PE                                                                  
   EATOM  =    53.5387 eV,    3.9350 Ry                                         
                                                                                
   TITEL  = PAW_PBE Al 04Jan2001                                                
   LULTRA =        F    use ultrasoft PP ?                                      
   IUNSCR =        1    unscreen: 0-lin 1-nonlin 2-no                           
   RPACOR =    1.500    partial core radius                                     
   POMASS =   26.982; ZVAL   =    3.000    mass and valenz                      
   RCORE  =    1.900    outmost cutoff radius                                   
   RWIGS  =    2.650; RWIGS  =    1.402    wigner-seitz radius (au A)           
   ENMAX  =  240.300; ENMIN  =  180.225 eV                                      
   ICORE  =        2    local potential                                         
   LCOR   =        T    correct aug charges                                     
   LPAW   =        T    paw PP                                                  
   EAUG   =  291.052                                                            
   DEXC   =    -.041                                                            
   RMAX   =    2.974    core radius for proj-oper                               
   RAUG   =    1.300    factor for augmentation sphere                          
   RDEP   =    1.966    radius for radial grids                                 
   QCUT   =   -4.203; QGAM   =    8.405    optimization parameters              
                                                                                
   Description                                                                  
     l     E      TYP  RCUT    TYP  RCUT                                        
     0   .000     23  1.900                                                     
     0   .000     23  1.900                                                     
     1   .000     23  1.900                                                     
     1  1.000     23  1.900                                                     
     2   .000      7  1.900                                                     
  local pseudopotential read in
  partial core-charges read in
  atomic valenz-charges read in
  non local Contribution for L=           0  read in
    real space projection operators read in
  non local Contribution for L=           0  read in
    real space projection operators read in
  non local Contribution for L=           1  read in
    real space projection operators read in
  non local Contribution for L=           1  read in
    real space projection operators read in
    PAW grid and wavefunctions read in
 
   number of l-projection  operators is LMAX  =           4
   number of lm-projection operators is LMMAX =           8
 
 PAW_PBE Al 04Jan2001                   :
 energy of atom  1       EATOM=  -53.5387
 kinetic energy error for atom=    0.0000 (will be added to EATOM!!)
 
 
 POSCAR: Al                                      
  positions in direct lattice
  No initial velocities read in
 exchange correlation table for  LEXCH =        8
   RHO(1)=    0.500       N(1)  =     2000
   RHO(2)=  100.500       N(2)  =     4000
 


--------------------------------------------------------------------------------------------------------


 ion  position               nearest neighbor table
   1  0.000  0.000  0.000-   2 2.86   3 2.86   4 2.86   2 2.86   3 2.86   2 2.86   4 2.86   2 2.86
                             3 2.86   4 2.86   3 2.86   4 2.86
   2  0.000  0.500  0.500-   1 2.86   3 2.86   4 2.86   1 2.86   4 2.86   1 2.86   3 2.86   1 2.86
                             3 2.86   4 2.86   4 2.86   3 2.86
   3  0.500  0.000  0.500-   1 2.86   2 2.86   4 2.86   1 2.86   4 2.86   2 2.86   4 2.86   4 2.86
                             1 2.86   2 2.86   1 2.86   2 2.86
   4  0.500  0.500  0.000-   1 2.86   2 2.86   3 2.86   2 2.86   3 2.86   1 2.86   3 2.86   3 2.86
                             1 2.86   2 2.86   2 2.86   1 2.86
 
  LATTYP: Found a simple cubic cell.
 ALAT       =     4.0500001907
  
  Lattice vectors:
  
 A1 = (   4.0500001907,   0.0000000000,   0.0000000000)
 A2 = (   0.0000000000,   4.0500001907,   0.0000000000)
 A3 = (   0.0000000000,   0.0000000000,   4.0500001907)


Analysis of symmetry for initial positions (statically):
=====================================================================
 Subroutine PRICEL returns following result:
 
  LATTYP: Found a face centered cubic cell.
 ALAT       =     4.0500001907
  
  Lattice vectors:
  
 A1 = (   2.0250000953,   2.0250000953,   0.0000000000)
 A2 = (   2.0250000953,   0.0000000000,  -2.0250000953)
 A3 = (   0.0000000000,   2.0250000953,  -2.0250000953)
 
   4 primitive cells build up your supercell.
 

 Routine SETGRP: Setting up the symmetry group for a 
 simple cubic supercell.


 Subroutine GETGRP returns: Found 48 space group operations
 (whereof 48 operations were pure point group operations)
 out of a pool of 48 trial point group operations.


The static configuration has the point symmetry O_h .


Analysis of symmetry for dynamics (positions and initial velocities):
=====================================================================
 Subroutine PRICEL returns following result:
 
  LATTYP: Found a face centered cubic cell.
 ALAT       =     4.0500001907
  
  Lattice vectors:
  
 A1 = (   2.0250000953,   2.0250000953,   0.0000000000)
 A2 = (   2.0250000953,   0.0000000000,  -2.0250000953)
 A3 = (   0.0000000000,   2.0250000953,  -2.0250000953)
 
   4 primitive cells build up your supercell.
 

 Routine SETGRP: Setting up the symmetry group for a 
 simple cubic supercell.


 Subroutine GETGRP returns: Found 48 space group operations
 (whereof 48 operations were pure point group operations)
 out of a pool of 48 trial point group operations.


The dynamic configuration has the point symmetry O_h .


 Subroutine INISYM returns: Found 48 space group operations
 (whereof 48 operations are pure point group operations),
 and found     4 'primitive' translations

 
 
 KPOINTS: Automatic mesh                          

Automatic generation of k-mesh.
 generate k-points for:    9    9    9
Space group operators:
 irot       det(A)        alpha          n_x          n_y          n_z        tau_x        tau_y        tau_z
    1     1.000000     0.000000     1.000000     0.000000     0.000000     0.000000     0.000000     0.000000
    2    -1.000000     0.000000     1.000000     0.000000     0.000000     0.000000     0.000000     0.000000
    3     1.000000   120.000000    -0.577350    -0.577350    -0.577350     0.000000     0.000000     0.000000
    4    -1.000000   120.000000    -0.577350    -0.577350    -0.577350     0.000000     0.000000     0.000000
    5     1.000000   120.000000     0.577350     0.577350     0.577350     0.000000     0.000000     0.000000
    6    -1.000000   120.000000     0.577350     0.577350     0.577350     0.000000     0.000000     0.000000
    7     1.000000    90.000000     0.000000     0.000000    -1.000000     0.000000     0.000000     0.000000
    8    -1.000000    90.000000     0.000000     0.000000    -1.000000     0.000000     0.000000     0.000000
    9     1.000000   180.000000     0.000000     0.707107     0.707107     0.000000     0.000000     0.000000
   10    -1.000000   180.000000     0.000000     0.707107     0.707107     0.000000     0.000000     0.000000
   11     1.000000    90.000000     0.000000     1.000000     0.000000     0.000000     0.000000     0.000000
   12    -1.000000    90.000000     0.000000     1.000000     0.000000     0.000000     0.000000     0.000000
   13     1.000000   179.999999     0.000000     0.000000     1.000000     0.000000     0.000000     0.000000
   14    -1.000000   179.999999     0.000000     0.000000     1.000000     0.000000     0.000000     0.000000
   15     1.000000   120.000000    -0.577350     0.577350     0.577350     0.000000     0.000000     0.000000
   16    -1.000000   120.000000    -0.577350     0.577350     0.577350     0.000000     0.000000     0.000000
   17     1.000000   120.000000    -0.577350     0.577350    -0.577350     0.000000     0.000000     0.000000
   18    -1.000000   120.000000    -0.577350     0.577350    -0.577350     0.000000     0.000000     0.000000
   19     1.000000    90.000000     0.000000     0.000000     1.000000     0.000000     0.000000     0.000000
   20    -1.000000    90.000000     0.000000     0.000000     1.000000     0.000000     0.000000     0.000000
   21     1.000000    90.000000    -1.000000     0.000000     0.000000     0.000000     0.000000     0.000000
   22    -1.000000    90.000000    -1.000000     0.000000     0.000000     0.000000     0.000000     0.000000
   23     1.000000   180.000000     0.707107     0.000000     0.707107     0.000000     0.000000     0.000000
   24    -1.000000   180.000000     0.707107     0.000000     0.707107     0.000000     0.000000     0.000000
   25     1.000000   120.000000     0.577350    -0.577350     0.577350     0.000000     0.000000     0.000000
   26    -1.000000   120.000000     0.577350    -0.577350     0.577350     0.000000     0.000000     0.000000
   27     1.000000   120.000000    -0.577350    -0.577350     0.577350     0.000000     0.000000     0.000000
   28    -1.000000   120.000000    -0.577350    -0.577350     0.577350     0.000000     0.000000     0.000000
   29     1.000000   180.000000     1.000000     0.000000     0.000000     0.000000     0.000000     0.000000
   30    -1.000000   180.000000     1.000000     0.000000     0.000000     0.000000     0.000000     0.000000
   31     1.000000    90.000000     0.000000    -1.000000     0.000000     0.000000     0.000000     0.000000
   32    -1.000000    90.000000     0.000000    -1.000000     0.000000     0.000000     0.000000     0.000000
   33     1.000000   180.000000     0.707107     0.707107     0.000000     0.000000     0.000000     0.000000
   34    -1.000000   180.000000     0.707107     0.707107     0.000000     0.000000     0.000000     0.000000
   35     1.000000    90.000000     1.000000     0.000000     0.000000     0.000000     0.000000     0.000000
   36    -1.000000    90.000000     1.000000     0.000000     0.000000     0.000000     0.000000     0.000000
   37     1.000000   120.000000     0.577350    -0.577350    -0.577350     0.000000     0.000000     0.000000
   38    -1.000000   120.000000     0.577350    -0.577350    -0.577350     0.000000     0.000000     0.000000
   39     1.000000   180.000000     0.000000     1.000000     0.000000     0.000000     0.000000     0.000000
   40    -1.000000   180.000000     0.000000     1.000000     0.000000     0.000000     0.000000     0.000000
   41     1.000000   120.000000     0.577350     0.577350    -0.577350     0.000000     0.000000     0.000000
   42    -1.000000   120.000000     0.577350     0.577350    -0.577350     0.000000     0.000000     0.000000
   43     1.000000   180.000000     0.000000    -0.707107     0.707107     0.000000     0.000000     0.000000
   44    -1.000000   180.000000     0.000000    -0.707107     0.707107     0.000000     0.000000     0.000000
   45     1.000000   180.000000     0.707107    -0.707107     0.000000     0.000000     0.000000     0.000000
   46    -1.000000   180.000000     0.707107    -0.707107     0.000000     0.000000     0.000000     0.000000
   47     1.000000   180.000000     0.707107     0.000000    -0.707107     0.000000     0.000000     0.000000
   48    -1.000000   180.000000     0.707107     0.000000    -0.707107     0.000000     0.000000     0.000000
 
 Subroutine IBZKPT returns following result:
 ===========================================
 
 Found     35 irreducible k-points:
 
 Following reciprocal coordinates:
            Coordinates               Weight
  0.000000  0.000000  0.000000      1.000000
  0.111111  0.000000  0.000000      6.000000
  0.222222  0.000000  0.000000      6.000000
  0.333333  0.000000  0.000000      6.000000
  0.444444  0.000000  0.000000      6.000000
  0.111111  0.111111  0.000000     12.000000
  0.222222  0.111111  0.000000     24.000000
  0.333333  0.111111  0.000000     24.000000
  0.444444  0.111111  0.000000     24.000000
  0.222222  0.222222  0.000000     12.000000
  0.333333  0.222222  0.000000     24.000000
  0.444444  0.222222  0.000000     24.000000
  0.333333  0.333333  0.000000     12.000000
  0.444444  0.333333  0.000000     24.000000
  0.444444  0.444444  0.000000     12.000000
  0.111111  0.111111  0.111111      8.000000
  0.222222  0.111111  0.111111     24.000000
  0.333333  0.111111  0.111111     24.000000
  0.444444  0.111111  0.111111     24.000000
  0.222222  0.222222  0.111111     24.000000
  0.333333  0.222222  0.111111     48.000000
  0.444444  0.222222  0.111111     48.000000
  0.333333  0.333333  0.111111     24.000000
  0.444444  0.333333  0.111111     48.000000
  0.444444  0.444444  0.111111     24.000000
  0.222222  0.222222  0.222222      8.000000
  0.333333  0.222222  0.222222     24.000000
  0.444444  0.222222  0.222222     24.000000
  0.333333  0.333333  0.222222     24.000000
  0.444444  0.333333  0.222222     48.000000
  0.444444  0.444444  0.222222     24.000000
  0.333333  0.333333  0.333333      8.000000
  0.444444  0.333333  0.333333     24.000000
  0.444444  0.444444  0.333333     24.000000
  0.444444  0.444444  0.444444      8.000000
 
 Following cartesian coordinates:
            Coordinates               Weight
  0.000000  0.000000  0.000000      1.000000
  0.027435  0.000000  0.000000      6.000000
  0.054870  0.000000  0.000000      6.000000
  0.082305  0.000000  0.000000      6.000000
  0.109739  0.000000  0.000000      6.000000
  0.027435  0.027435  0.000000     12.000000
  0.054870  0.027435  0.000000     24.000000
  0.082305  0.027435  0.000000     24.000000
  0.109739  0.027435  0.000000     24.000000
  0.054870  0.054870  0.000000     12.000000
  0.082305  0.054870  0.000000     24.000000
  0.109739  0.054870  0.000000     24.000000
  0.082305  0.082305  0.000000     12.000000
  0.109739  0.082305  0.000000     24.000000
  0.109739  0.109739  0.000000     12.000000
  0.027435  0.027435  0.027435      8.000000
  0.054870  0.027435  0.027435     24.000000
  0.082305  0.027435  0.027435     24.000000
  0.109739  0.027435  0.027435     24.000000
  0.054870  0.054870  0.027435     24.000000
  0.082305  0.054870  0.027435     48.000000
  0.109739  0.054870  0.027435     48.000000
  0.082305  0.082305  0.027435     24.000000
  0.109739  0.082305  0.027435     48.000000
  0.109739  0.109739  0.027435     24.000000
  0.054870  0.054870  0.054870      8.000000
  0.082305  0.054870  0.054870     24.000000
  0.109739  0.054870  0.054870     24.000000
  0.082305  0.082305  0.054870     24.000000
  0.109739  0.082305  0.054870     48.000000
  0.109739  0.109739  0.054870     24.000000
  0.082305  0.082305  0.082305      8.000000
  0.109739  0.082305  0.082305     24.000000
  0.109739  0.109739  0.082305     24.000000
  0.109739  0.109739  0.109739      8.000000
 
 
 Subroutine IBZKPT_HF returns following result:
 ==============================================
 
 Found    729 k-points in 1st BZ
 the following    729 k-points will be used (e.g. in the exchange kernel)
 Following reciprocal coordinates:   # in IRBZ
  0.000000  0.000000  0.000000    0.00137174   1 t-inv F
  0.111111  0.000000  0.000000    0.00137174   2 t-inv F
  0.222222  0.000000  0.000000    0.00137174   3 t-inv F
  0.333333  0.000000  0.000000    0.00137174   4 t-inv F
  0.444444  0.000000  0.000000    0.00137174   5 t-inv F
  0.111111  0.111111  0.000000    0.00137174   6 t-inv F
  0.222222  0.111111  0.000000    0.00137174   7 t-inv F
  0.333333  0.111111  0.000000    0.00137174   8 t-inv F
  0.444444  0.111111  0.000000    0.00137174   9 t-inv F
  0.222222  0.222222  0.000000    0.00137174  10 t-inv F
  0.333333  0.222222  0.000000    0.00137174  11 t-inv F
  0.444444  0.222222  0.000000    0.00137174  12 t-inv F
  0.333333  0.333333  0.000000    0.00137174  13 t-inv F
  0.444444  0.333333  0.000000    0.00137174  14 t-inv F
  0.444444  0.444444  0.000000    0.00137174  15 t-inv F
  0.111111  0.111111  0.111111    0.00137174  16 t-inv F
  0.222222  0.111111  0.111111    0.00137174  17 t-inv F
  0.333333  0.111111  0.111111    0.00137174  18 t-inv F
  0.444444  0.111111  0.111111    0.00137174  19 t-inv F
  0.222222  0.222222  0.111111    0.00137174  20 t-inv F
  0.333333  0.222222  0.111111    0.00137174  21 t-inv F
  0.444444  0.222222  0.111111    0.00137174  22 t-inv F
  0.333333  0.333333  0.111111    0.00137174  23 t-inv F
  0.444444  0.333333  0.111111    0.00137174  24 t-inv F
  0.444444  0.444444  0.111111    0.00137174  25 t-inv F
  0.222222  0.222222  0.222222    0.00137174  26 t-inv F
  0.333333  0.222222  0.222222    0.00137174  27 t-inv F
  0.444444  0.222222  0.222222    0.00137174  28 t-inv F
  0.333333  0.333333  0.222222    0.00137174  29 t-inv F
  0.444444  0.333333  0.222222    0.00137174  30 t-inv F
  0.444444  0.444444  0.222222    0.00137174  31 t-inv F
  0.333333  0.333333  0.333333    0.00137174  32 t-inv F
  0.444444  0.333333  0.333333    0.00137174  33 t-inv F
  0.444444  0.444444  0.333333    0.00137174  34 t-inv F
  0.444444  0.444444  0.444444    0.00137174  35 t-inv F
 -0.111111  0.000000  0.000000    0.00137174   2 t-inv F
  0.000000  0.111111  0.000000    0.00137174   2 t-inv F
  0.000000 -0.111111  0.000000    0.00137174   2 t-inv F
  0.000000  0.000000  0.111111    0.00137174   2 t-inv F
  0.000000  0.000000 -0.111111    0.00137174   2 t-inv F
 -0.222222  0.000000  0.000000    0.00137174   3 t-inv F
  0.000000  0.222222  0.000000    0.00137174   3 t-inv F
  0.000000 -0.222222  0.000000    0.00137174   3 t-inv F
  0.000000  0.000000  0.222222    0.00137174   3 t-inv F
  0.000000  0.000000 -0.222222    0.00137174   3 t-inv F
 -0.333333  0.000000  0.000000    0.00137174   4 t-inv F
  0.000000  0.333333  0.000000    0.00137174   4 t-inv F
  0.000000 -0.333333  0.000000    0.00137174   4 t-inv F
  0.000000  0.000000  0.333333    0.00137174   4 t-inv F
  0.000000  0.000000 -0.333333    0.00137174   4 t-inv F
 -0.444444  0.000000  0.000000    0.00137174   5 t-inv F
  0.000000  0.444444  0.000000    0.00137174   5 t-inv F
  0.000000 -0.444444  0.000000    0.00137174   5 t-inv F
  0.000000  0.000000  0.444444    0.00137174   5 t-inv F
  0.000000  0.000000 -0.444444    0.00137174   5 t-inv F
 -0.111111 -0.111111  0.000000    0.00137174   6 t-inv F
  0.000000  0.111111  0.111111    0.00137174   6 t-inv F
  0.000000 -0.111111 -0.111111    0.00137174   6 t-inv F
  0.111111  0.000000  0.111111    0.00137174   6 t-inv F
 -0.111111  0.000000 -0.111111    0.00137174   6 t-inv F
 -0.111111  0.111111  0.000000    0.00137174   6 t-inv F
  0.111111 -0.111111  0.000000    0.00137174   6 t-inv F
 -0.111111  0.000000  0.111111    0.00137174   6 t-inv F
  0.111111  0.000000 -0.111111    0.00137174   6 t-inv F
  0.000000 -0.111111  0.111111    0.00137174   6 t-inv F
  0.000000  0.111111 -0.111111    0.00137174   6 t-inv F
 -0.222222 -0.111111  0.000000    0.00137174   7 t-inv F
  0.000000  0.222222  0.111111    0.00137174   7 t-inv F
  0.000000 -0.222222 -0.111111    0.00137174   7 t-inv F
  0.111111  0.000000  0.222222    0.00137174   7 t-inv F
 -0.111111  0.000000 -0.222222    0.00137174   7 t-inv F
 -0.111111  0.222222  0.000000    0.00137174   7 t-inv F
  0.111111 -0.222222  0.000000    0.00137174   7 t-inv F
 -0.222222  0.000000  0.111111    0.00137174   7 t-inv F
  0.222222  0.000000 -0.111111    0.00137174   7 t-inv F
  0.000000  0.111111  0.222222    0.00137174   7 t-inv F
  0.000000 -0.111111 -0.222222    0.00137174   7 t-inv F
  0.000000 -0.222222  0.111111    0.00137174   7 t-inv F
  0.000000  0.222222 -0.111111    0.00137174   7 t-inv F
 -0.111111  0.000000  0.222222    0.00137174   7 t-inv F
  0.111111  0.000000 -0.222222    0.00137174   7 t-inv F
  0.222222  0.000000  0.111111    0.00137174   7 t-inv F
 -0.222222  0.000000 -0.111111    0.00137174   7 t-inv F
  0.000000 -0.111111  0.222222    0.00137174   7 t-inv F
  0.000000  0.111111 -0.222222    0.00137174   7 t-inv F
  0.222222 -0.111111  0.000000    0.00137174   7 t-inv F
 -0.222222  0.111111  0.000000    0.00137174   7 t-inv F
  0.111111  0.222222  0.000000    0.00137174   7 t-inv F
 -0.111111 -0.222222  0.000000    0.00137174   7 t-inv F
 -0.333333 -0.111111  0.000000    0.00137174   8 t-inv F
  0.000000  0.333333  0.111111    0.00137174   8 t-inv F
  0.000000 -0.333333 -0.111111    0.00137174   8 t-inv F
  0.111111  0.000000  0.333333    0.00137174   8 t-inv F
 -0.111111  0.000000 -0.333333    0.00137174   8 t-inv F
 -0.111111  0.333333  0.000000    0.00137174   8 t-inv F
  0.111111 -0.333333  0.000000    0.00137174   8 t-inv F
 -0.333333  0.000000  0.111111    0.00137174   8 t-inv F
  0.333333  0.000000 -0.111111    0.00137174   8 t-inv F
  0.000000  0.111111  0.333333    0.00137174   8 t-inv F
  0.000000 -0.111111 -0.333333    0.00137174   8 t-inv F
  0.000000 -0.333333  0.111111    0.00137174   8 t-inv F
  0.000000  0.333333 -0.111111    0.00137174   8 t-inv F
 -0.111111  0.000000  0.333333    0.00137174   8 t-inv F
  0.111111  0.000000 -0.333333    0.00137174   8 t-inv F
  0.333333  0.000000  0.111111    0.00137174   8 t-inv F
 -0.333333  0.000000 -0.111111    0.00137174   8 t-inv F
  0.000000 -0.111111  0.333333    0.00137174   8 t-inv F
  0.000000  0.111111 -0.333333    0.00137174   8 t-inv F
  0.333333 -0.111111  0.000000    0.00137174   8 t-inv F
 -0.333333  0.111111  0.000000    0.00137174   8 t-inv F
  0.111111  0.333333  0.000000    0.00137174   8 t-inv F
 -0.111111 -0.333333  0.000000    0.00137174   8 t-inv F
 -0.444444 -0.111111  0.000000    0.00137174   9 t-inv F
  0.000000  0.444444  0.111111    0.00137174   9 t-inv F
  0.000000 -0.444444 -0.111111    0.00137174   9 t-inv F
  0.111111  0.000000  0.444444    0.00137174   9 t-inv F
 -0.111111  0.000000 -0.444444    0.00137174   9 t-inv F
 -0.111111  0.444444  0.000000    0.00137174   9 t-inv F
  0.111111 -0.444444  0.000000    0.00137174   9 t-inv F
 -0.444444  0.000000  0.111111    0.00137174   9 t-inv F
  0.444444  0.000000 -0.111111    0.00137174   9 t-inv F
  0.000000  0.111111  0.444444    0.00137174   9 t-inv F
  0.000000 -0.111111 -0.444444    0.00137174   9 t-inv F
  0.000000 -0.444444  0.111111    0.00137174   9 t-inv F
  0.000000  0.444444 -0.111111    0.00137174   9 t-inv F
 -0.111111  0.000000  0.444444    0.00137174   9 t-inv F
  0.111111  0.000000 -0.444444    0.00137174   9 t-inv F
  0.444444  0.000000  0.111111    0.00137174   9 t-inv F
 -0.444444  0.000000 -0.111111    0.00137174   9 t-inv F
  0.000000 -0.111111  0.444444    0.00137174   9 t-inv F
  0.000000  0.111111 -0.444444    0.00137174   9 t-inv F
  0.444444 -0.111111  0.000000    0.00137174   9 t-inv F
 -0.444444  0.111111  0.000000    0.00137174   9 t-inv F
  0.111111  0.444444  0.000000    0.00137174   9 t-inv F
 -0.111111 -0.444444  0.000000    0.00137174   9 t-inv F
 -0.222222 -0.222222  0.000000    0.00137174  10 t-inv F
  0.000000  0.222222  0.222222    0.00137174  10 t-inv F
  0.000000 -0.222222 -0.222222    0.00137174  10 t-inv F
  0.222222  0.000000  0.222222    0.00137174  10 t-inv F
 -0.222222  0.000000 -0.222222    0.00137174  10 t-inv F
 -0.222222  0.222222  0.000000    0.00137174  10 t-inv F
  0.222222 -0.222222  0.000000    0.00137174  10 t-inv F
 -0.222222  0.000000  0.222222    0.00137174  10 t-inv F
  0.222222  0.000000 -0.222222    0.00137174  10 t-inv F
  0.000000 -0.222222  0.222222    0.00137174  10 t-inv F
  0.000000  0.222222 -0.222222    0.00137174  10 t-inv F
 -0.333333 -0.222222  0.000000    0.00137174  11 t-inv F
  0.000000  0.333333  0.222222    0.00137174  11 t-inv F
  0.000000 -0.333333 -0.222222    0.00137174  11 t-inv F
  0.222222  0.000000  0.333333    0.00137174  11 t-inv F
 -0.222222  0.000000 -0.333333    0.00137174  11 t-inv F
 -0.222222  0.333333  0.000000    0.00137174  11 t-inv F
  0.222222 -0.333333  0.000000    0.00137174  11 t-inv F
 -0.333333  0.000000  0.222222    0.00137174  11 t-inv F
  0.333333  0.000000 -0.222222    0.00137174  11 t-inv F
  0.000000  0.222222  0.333333    0.00137174  11 t-inv F
  0.000000 -0.222222 -0.333333    0.00137174  11 t-inv F
  0.000000 -0.333333  0.222222    0.00137174  11 t-inv F
  0.000000  0.333333 -0.222222    0.00137174  11 t-inv F
 -0.222222  0.000000  0.333333    0.00137174  11 t-inv F
  0.222222  0.000000 -0.333333    0.00137174  11 t-inv F
  0.333333  0.000000  0.222222    0.00137174  11 t-inv F
 -0.333333  0.000000 -0.222222    0.00137174  11 t-inv F
  0.000000 -0.222222  0.333333    0.00137174  11 t-inv F
  0.000000  0.222222 -0.333333    0.00137174  11 t-inv F
  0.333333 -0.222222  0.000000    0.00137174  11 t-inv F
 -0.333333  0.222222  0.000000    0.00137174  11 t-inv F
  0.222222  0.333333  0.000000    0.00137174  11 t-inv F
 -0.222222 -0.333333  0.000000    0.00137174  11 t-inv F
 -0.444444 -0.222222  0.000000    0.00137174  12 t-inv F
  0.000000  0.444444  0.222222    0.00137174  12 t-inv F
  0.000000 -0.444444 -0.222222    0.00137174  12 t-inv F
  0.222222  0.000000  0.444444    0.00137174  12 t-inv F
 -0.222222  0.000000 -0.444444    0.00137174  12 t-inv F
 -0.222222  0.444444  0.000000    0.00137174  12 t-inv F
  0.222222 -0.444444  0.000000    0.00137174  12 t-inv F
 -0.444444  0.000000  0.222222    0.00137174  12 t-inv F
  0.444444  0.000000 -0.222222    0.00137174  12 t-inv F
  0.000000  0.222222  0.444444    0.00137174  12 t-inv F
  0.000000 -0.222222 -0.444444    0.00137174  12 t-inv F
  0.000000 -0.444444  0.222222    0.00137174  12 t-inv F
  0.000000  0.444444 -0.222222    0.00137174  12 t-inv F
 -0.222222  0.000000  0.444444    0.00137174  12 t-inv F
  0.222222  0.000000 -0.444444    0.00137174  12 t-inv F
  0.444444  0.000000  0.222222    0.00137174  12 t-inv F
 -0.444444  0.000000 -0.222222    0.00137174  12 t-inv F
  0.000000 -0.222222  0.444444    0.00137174  12 t-inv F
  0.000000  0.222222 -0.444444    0.00137174  12 t-inv F
  0.444444 -0.222222  0.000000    0.00137174  12 t-inv F
 -0.444444  0.222222  0.000000    0.00137174  12 t-inv F
  0.222222  0.444444  0.000000    0.00137174  12 t-inv F
 -0.222222 -0.444444  0.000000    0.00137174  12 t-inv F
 -0.333333 -0.333333  0.000000    0.00137174  13 t-inv F
  0.000000  0.333333  0.333333    0.00137174  13 t-inv F
  0.000000 -0.333333 -0.333333    0.00137174  13 t-inv F
  0.333333  0.000000  0.333333    0.00137174  13 t-inv F
 -0.333333  0.000000 -0.333333    0.00137174  13 t-inv F
 -0.333333  0.333333  0.000000    0.00137174  13 t-inv F
  0.333333 -0.333333  0.000000    0.00137174  13 t-inv F
 -0.333333  0.000000  0.333333    0.00137174  13 t-inv F
  0.333333  0.000000 -0.333333    0.00137174  13 t-inv F
  0.000000 -0.333333  0.333333    0.00137174  13 t-inv F
  0.000000  0.333333 -0.333333    0.00137174  13 t-inv F
 -0.444444 -0.333333  0.000000    0.00137174  14 t-inv F
  0.000000  0.444444  0.333333    0.00137174  14 t-inv F
  0.000000 -0.444444 -0.333333    0.00137174  14 t-inv F
  0.333333  0.000000  0.444444    0.00137174  14 t-inv F
 -0.333333  0.000000 -0.444444    0.00137174  14 t-inv F
 -0.333333  0.444444  0.000000    0.00137174  14 t-inv F
  0.333333 -0.444444  0.000000    0.00137174  14 t-inv F
 -0.444444  0.000000  0.333333    0.00137174  14 t-inv F
  0.444444  0.000000 -0.333333    0.00137174  14 t-inv F
  0.000000  0.333333  0.444444    0.00137174  14 t-inv F
  0.000000 -0.333333 -0.444444    0.00137174  14 t-inv F
  0.000000 -0.444444  0.333333    0.00137174  14 t-inv F
  0.000000  0.444444 -0.333333    0.00137174  14 t-inv F
 -0.333333  0.000000  0.444444    0.00137174  14 t-inv F
  0.333333  0.000000 -0.444444    0.00137174  14 t-inv F
  0.444444  0.000000  0.333333    0.00137174  14 t-inv F
 -0.444444  0.000000 -0.333333    0.00137174  14 t-inv F
  0.000000 -0.333333  0.444444    0.00137174  14 t-inv F
  0.000000  0.333333 -0.444444    0.00137174  14 t-inv F
  0.444444 -0.333333  0.000000    0.00137174  14 t-inv F
 -0.444444  0.333333  0.000000    0.00137174  14 t-inv F
  0.333333  0.444444  0.000000    0.00137174  14 t-inv F
 -0.333333 -0.444444  0.000000    0.00137174  14 t-inv F
 -0.444444 -0.444444  0.000000    0.00137174  15 t-inv F
  0.000000  0.444444  0.444444    0.00137174  15 t-inv F
  0.000000 -0.444444 -0.444444    0.00137174  15 t-inv F
  0.444444  0.000000  0.444444    0.00137174  15 t-inv F
 -0.444444  0.000000 -0.444444    0.00137174  15 t-inv F
 -0.444444  0.444444  0.000000    0.00137174  15 t-inv F
  0.444444 -0.444444  0.000000    0.00137174  15 t-inv F
 -0.444444  0.000000  0.444444    0.00137174  15 t-inv F
  0.444444  0.000000 -0.444444    0.00137174  15 t-inv F
  0.000000 -0.444444  0.444444    0.00137174  15 t-inv F
  0.000000  0.444444 -0.444444    0.00137174  15 t-inv F
 -0.111111 -0.111111 -0.111111    0.00137174  16 t-inv F
 -0.111111  0.111111  0.111111    0.00137174  16 t-inv F
  0.111111 -0.111111 -0.111111    0.00137174  16 t-inv F
 -0.111111 -0.111111  0.111111    0.00137174  16 t-inv F
  0.111111  0.111111 -0.111111    0.00137174  16 t-inv F
  0.111111 -0.111111  0.111111    0.00137174  16 t-inv F
 -0.111111  0.111111 -0.111111    0.00137174  16 t-inv F
 -0.222222 -0.111111 -0.111111    0.00137174  17 t-inv F
  0.111111  0.222222  0.111111    0.00137174  17 t-inv F
 -0.111111 -0.222222 -0.111111    0.00137174  17 t-inv F
  0.111111  0.111111  0.222222    0.00137174  17 t-inv F
 -0.111111 -0.111111 -0.222222    0.00137174  17 t-inv F
 -0.111111  0.222222  0.111111    0.00137174  17 t-inv F
  0.111111 -0.222222 -0.111111    0.00137174  17 t-inv F
 -0.222222  0.111111  0.111111    0.00137174  17 t-inv F
  0.222222 -0.111111 -0.111111    0.00137174  17 t-inv F
 -0.111111  0.111111  0.222222    0.00137174  17 t-inv F
  0.111111 -0.111111 -0.222222    0.00137174  17 t-inv F
 -0.222222 -0.111111  0.111111    0.00137174  17 t-inv F
  0.222222  0.111111 -0.111111    0.00137174  17 t-inv F
 -0.111111 -0.222222  0.111111    0.00137174  17 t-inv F
  0.111111  0.222222 -0.111111    0.00137174  17 t-inv F
 -0.111111 -0.111111  0.222222    0.00137174  17 t-inv F
  0.111111  0.111111 -0.222222    0.00137174  17 t-inv F
  0.111111 -0.222222  0.111111    0.00137174  17 t-inv F
 -0.111111  0.222222 -0.111111    0.00137174  17 t-inv F
  0.222222 -0.111111  0.111111    0.00137174  17 t-inv F
 -0.222222  0.111111 -0.111111    0.00137174  17 t-inv F
  0.111111 -0.111111  0.222222    0.00137174  17 t-inv F
 -0.111111  0.111111 -0.222222    0.00137174  17 t-inv F
 -0.333333 -0.111111 -0.111111    0.00137174  18 t-inv F
  0.111111  0.333333  0.111111    0.00137174  18 t-inv F
 -0.111111 -0.333333 -0.111111    0.00137174  18 t-inv F
  0.111111  0.111111  0.333333    0.00137174  18 t-inv F
 -0.111111 -0.111111 -0.333333    0.00137174  18 t-inv F
 -0.111111  0.333333  0.111111    0.00137174  18 t-inv F
  0.111111 -0.333333 -0.111111    0.00137174  18 t-inv F
 -0.333333  0.111111  0.111111    0.00137174  18 t-inv F
  0.333333 -0.111111 -0.111111    0.00137174  18 t-inv F
 -0.111111  0.111111  0.333333    0.00137174  18 t-inv F
  0.111111 -0.111111 -0.333333    0.00137174  18 t-inv F
 -0.333333 -0.111111  0.111111    0.00137174  18 t-inv F
  0.333333  0.111111 -0.111111    0.00137174  18 t-inv F
 -0.111111 -0.333333  0.111111    0.00137174  18 t-inv F
  0.111111  0.333333 -0.111111    0.00137174  18 t-inv F
 -0.111111 -0.111111  0.333333    0.00137174  18 t-inv F
  0.111111  0.111111 -0.333333    0.00137174  18 t-inv F
  0.111111 -0.333333  0.111111    0.00137174  18 t-inv F
 -0.111111  0.333333 -0.111111    0.00137174  18 t-inv F
  0.333333 -0.111111  0.111111    0.00137174  18 t-inv F
 -0.333333  0.111111 -0.111111    0.00137174  18 t-inv F
  0.111111 -0.111111  0.333333    0.00137174  18 t-inv F
 -0.111111  0.111111 -0.333333    0.00137174  18 t-inv F
 -0.444444 -0.111111 -0.111111    0.00137174  19 t-inv F
  0.111111  0.444444  0.111111    0.00137174  19 t-inv F
 -0.111111 -0.444444 -0.111111    0.00137174  19 t-inv F
  0.111111  0.111111  0.444444    0.00137174  19 t-inv F
 -0.111111 -0.111111 -0.444444    0.00137174  19 t-inv F
 -0.111111  0.444444  0.111111    0.00137174  19 t-inv F
  0.111111 -0.444444 -0.111111    0.00137174  19 t-inv F
 -0.444444  0.111111  0.111111    0.00137174  19 t-inv F
  0.444444 -0.111111 -0.111111    0.00137174  19 t-inv F
 -0.111111  0.111111  0.444444    0.00137174  19 t-inv F
  0.111111 -0.111111 -0.444444    0.00137174  19 t-inv F
 -0.444444 -0.111111  0.111111    0.00137174  19 t-inv F
  0.444444  0.111111 -0.111111    0.00137174  19 t-inv F
 -0.111111 -0.444444  0.111111    0.00137174  19 t-inv F
  0.111111  0.444444 -0.111111    0.00137174  19 t-inv F
 -0.111111 -0.111111  0.444444    0.00137174  19 t-inv F
  0.111111  0.111111 -0.444444    0.00137174  19 t-inv F
  0.111111 -0.444444  0.111111    0.00137174  19 t-inv F
 -0.111111  0.444444 -0.111111    0.00137174  19 t-inv F
  0.444444 -0.111111  0.111111    0.00137174  19 t-inv F
 -0.444444  0.111111 -0.111111    0.00137174  19 t-inv F
  0.111111 -0.111111  0.444444    0.00137174  19 t-inv F
 -0.111111  0.111111 -0.444444    0.00137174  19 t-inv F
 -0.222222 -0.222222 -0.111111    0.00137174  20 t-inv F
  0.111111  0.222222  0.222222    0.00137174  20 t-inv F
 -0.111111 -0.222222 -0.222222    0.00137174  20 t-inv F
  0.222222  0.111111  0.222222    0.00137174  20 t-inv F
 -0.222222 -0.111111 -0.222222    0.00137174  20 t-inv F
 -0.222222  0.222222  0.111111    0.00137174  20 t-inv F
  0.222222 -0.222222 -0.111111    0.00137174  20 t-inv F
 -0.222222  0.111111  0.222222    0.00137174  20 t-inv F
  0.222222 -0.111111 -0.222222    0.00137174  20 t-inv F
 -0.111111  0.222222  0.222222    0.00137174  20 t-inv F
  0.111111 -0.222222 -0.222222    0.00137174  20 t-inv F
 -0.222222 -0.222222  0.111111    0.00137174  20 t-inv F
  0.222222  0.222222 -0.111111    0.00137174  20 t-inv F
 -0.111111 -0.222222  0.222222    0.00137174  20 t-inv F
  0.111111  0.222222 -0.222222    0.00137174  20 t-inv F
 -0.222222 -0.111111  0.222222    0.00137174  20 t-inv F
  0.222222  0.111111 -0.222222    0.00137174  20 t-inv F
  0.222222 -0.222222  0.111111    0.00137174  20 t-inv F
 -0.222222  0.222222 -0.111111    0.00137174  20 t-inv F
  0.222222 -0.111111  0.222222    0.00137174  20 t-inv F
 -0.222222  0.111111 -0.222222    0.00137174  20 t-inv F
  0.111111 -0.222222  0.222222    0.00137174  20 t-inv F
 -0.111111  0.222222 -0.222222    0.00137174  20 t-inv F
 -0.333333 -0.222222 -0.111111    0.00137174  21 t-inv F
  0.111111  0.333333  0.222222    0.00137174  21 t-inv F
 -0.111111 -0.333333 -0.222222    0.00137174  21 t-inv F
  0.222222  0.111111  0.333333    0.00137174  21 t-inv F
 -0.222222 -0.111111 -0.333333    0.00137174  21 t-inv F
 -0.222222  0.333333  0.111111    0.00137174  21 t-inv F
  0.222222 -0.333333 -0.111111    0.00137174  21 t-inv F
 -0.333333  0.111111  0.222222    0.00137174  21 t-inv F
  0.333333 -0.111111 -0.222222    0.00137174  21 t-inv F
 -0.111111  0.222222  0.333333    0.00137174  21 t-inv F
  0.111111 -0.222222 -0.333333    0.00137174  21 t-inv F
 -0.333333 -0.222222  0.111111    0.00137174  21 t-inv F
  0.333333  0.222222 -0.111111    0.00137174  21 t-inv F
 -0.111111 -0.333333  0.222222    0.00137174  21 t-inv F
  0.111111  0.333333 -0.222222    0.00137174  21 t-inv F
 -0.222222 -0.111111  0.333333    0.00137174  21 t-inv F
  0.222222  0.111111 -0.333333    0.00137174  21 t-inv F
  0.222222 -0.333333  0.111111    0.00137174  21 t-inv F
 -0.222222  0.333333 -0.111111    0.00137174  21 t-inv F
  0.333333 -0.111111  0.222222    0.00137174  21 t-inv F
 -0.333333  0.111111 -0.222222    0.00137174  21 t-inv F
  0.111111 -0.222222  0.333333    0.00137174  21 t-inv F
 -0.111111  0.222222 -0.333333    0.00137174  21 t-inv F
  0.111111 -0.333333 -0.222222    0.00137174  21 t-inv F
 -0.111111  0.333333  0.222222    0.00137174  21 t-inv F
  0.222222 -0.111111 -0.333333    0.00137174  21 t-inv F
 -0.222222  0.111111  0.333333    0.00137174  21 t-inv F
  0.333333 -0.222222 -0.111111    0.00137174  21 t-inv F
 -0.333333  0.222222  0.111111    0.00137174  21 t-inv F
  0.111111  0.222222 -0.333333    0.00137174  21 t-inv F
 -0.111111 -0.222222  0.333333    0.00137174  21 t-inv F
  0.222222  0.333333 -0.111111    0.00137174  21 t-inv F
 -0.222222 -0.333333  0.111111    0.00137174  21 t-inv F
  0.333333  0.111111 -0.222222    0.00137174  21 t-inv F
 -0.333333 -0.111111  0.222222    0.00137174  21 t-inv F
 -0.222222  0.111111 -0.333333    0.00137174  21 t-inv F
  0.222222 -0.111111  0.333333    0.00137174  21 t-inv F
 -0.333333  0.222222 -0.111111    0.00137174  21 t-inv F
  0.333333 -0.222222  0.111111    0.00137174  21 t-inv F
 -0.111111  0.333333 -0.222222    0.00137174  21 t-inv F
  0.111111 -0.333333  0.222222    0.00137174  21 t-inv F
 -0.333333 -0.111111 -0.222222    0.00137174  21 t-inv F
  0.333333  0.111111  0.222222    0.00137174  21 t-inv F
 -0.222222 -0.333333 -0.111111    0.00137174  21 t-inv F
  0.222222  0.333333  0.111111    0.00137174  21 t-inv F
 -0.111111 -0.222222 -0.333333    0.00137174  21 t-inv F
  0.111111  0.222222  0.333333    0.00137174  21 t-inv F
 -0.444444 -0.222222 -0.111111    0.00137174  22 t-inv F
  0.111111  0.444444  0.222222    0.00137174  22 t-inv F
 -0.111111 -0.444444 -0.222222    0.00137174  22 t-inv F
  0.222222  0.111111  0.444444    0.00137174  22 t-inv F
 -0.222222 -0.111111 -0.444444    0.00137174  22 t-inv F
 -0.222222  0.444444  0.111111    0.00137174  22 t-inv F
  0.222222 -0.444444 -0.111111    0.00137174  22 t-inv F
 -0.444444  0.111111  0.222222    0.00137174  22 t-inv F
  0.444444 -0.111111 -0.222222    0.00137174  22 t-inv F
 -0.111111  0.222222  0.444444    0.00137174  22 t-inv F
  0.111111 -0.222222 -0.444444    0.00137174  22 t-inv F
 -0.444444 -0.222222  0.111111    0.00137174  22 t-inv F
  0.444444  0.222222 -0.111111    0.00137174  22 t-inv F
 -0.111111 -0.444444  0.222222    0.00137174  22 t-inv F
  0.111111  0.444444 -0.222222    0.00137174  22 t-inv F
 -0.222222 -0.111111  0.444444    0.00137174  22 t-inv F
  0.222222  0.111111 -0.444444    0.00137174  22 t-inv F
  0.222222 -0.444444  0.111111    0.00137174  22 t-inv F
 -0.222222  0.444444 -0.111111    0.00137174  22 t-inv F
  0.444444 -0.111111  0.222222    0.00137174  22 t-inv F
 -0.444444  0.111111 -0.222222    0.00137174  22 t-inv F
  0.111111 -0.222222  0.444444    0.00137174  22 t-inv F
 -0.111111  0.222222 -0.444444    0.00137174  22 t-inv F
  0.111111 -0.444444 -0.222222    0.00137174  22 t-inv F
 -0.111111  0.444444  0.222222    0.00137174  22 t-inv F
  0.222222 -0.111111 -0.444444    0.00137174  22 t-inv F
 -0.222222  0.111111  0.444444    0.00137174  22 t-inv F
  0.444444 -0.222222 -0.111111    0.00137174  22 t-inv F
 -0.444444  0.222222  0.111111    0.00137174  22 t-inv F
  0.111111  0.222222 -0.444444    0.00137174  22 t-inv F
 -0.111111 -0.222222  0.444444    0.00137174  22 t-inv F
  0.222222  0.444444 -0.111111    0.00137174  22 t-inv F
 -0.222222 -0.444444  0.111111    0.00137174  22 t-inv F
  0.444444  0.111111 -0.222222    0.00137174  22 t-inv F
 -0.444444 -0.111111  0.222222    0.00137174  22 t-inv F
 -0.222222  0.111111 -0.444444    0.00137174  22 t-inv F
  0.222222 -0.111111  0.444444    0.00137174  22 t-inv F
 -0.444444  0.222222 -0.111111    0.00137174  22 t-inv F
  0.444444 -0.222222  0.111111    0.00137174  22 t-inv F
 -0.111111  0.444444 -0.222222    0.00137174  22 t-inv F
  0.111111 -0.444444  0.222222    0.00137174  22 t-inv F
 -0.444444 -0.111111 -0.222222    0.00137174  22 t-inv F
  0.444444  0.111111  0.222222    0.00137174  22 t-inv F
 -0.222222 -0.444444 -0.111111    0.00137174  22 t-inv F
  0.222222  0.444444  0.111111    0.00137174  22 t-inv F
 -0.111111 -0.222222 -0.444444    0.00137174  22 t-inv F
  0.111111  0.222222  0.444444    0.00137174  22 t-inv F
 -0.333333 -0.333333 -0.111111    0.00137174  23 t-inv F
  0.111111  0.333333  0.333333    0.00137174  23 t-inv F
 -0.111111 -0.333333 -0.333333    0.00137174  23 t-inv F
  0.333333  0.111111  0.333333    0.00137174  23 t-inv F
 -0.333333 -0.111111 -0.333333    0.00137174  23 t-inv F
 -0.333333  0.333333  0.111111    0.00137174  23 t-inv F
  0.333333 -0.333333 -0.111111    0.00137174  23 t-inv F
 -0.333333  0.111111  0.333333    0.00137174  23 t-inv F
  0.333333 -0.111111 -0.333333    0.00137174  23 t-inv F
 -0.111111  0.333333  0.333333    0.00137174  23 t-inv F
  0.111111 -0.333333 -0.333333    0.00137174  23 t-inv F
 -0.333333 -0.333333  0.111111    0.00137174  23 t-inv F
  0.333333  0.333333 -0.111111    0.00137174  23 t-inv F
 -0.111111 -0.333333  0.333333    0.00137174  23 t-inv F
  0.111111  0.333333 -0.333333    0.00137174  23 t-inv F
 -0.333333 -0.111111  0.333333    0.00137174  23 t-inv F
  0.333333  0.111111 -0.333333    0.00137174  23 t-inv F
  0.333333 -0.333333  0.111111    0.00137174  23 t-inv F
 -0.333333  0.333333 -0.111111    0.00137174  23 t-inv F
  0.333333 -0.111111  0.333333    0.00137174  23 t-inv F
 -0.333333  0.111111 -0.333333    0.00137174  23 t-inv F
  0.111111 -0.333333  0.333333    0.00137174  23 t-inv F
 -0.111111  0.333333 -0.333333    0.00137174  23 t-inv F
 -0.444444 -0.333333 -0.111111    0.00137174  24 t-inv F
  0.111111  0.444444  0.333333    0.00137174  24 t-inv F
 -0.111111 -0.444444 -0.333333    0.00137174  24 t-inv F
  0.333333  0.111111  0.444444    0.00137174  24 t-inv F
 -0.333333 -0.111111 -0.444444    0.00137174  24 t-inv F
 -0.333333  0.444444  0.111111    0.00137174  24 t-inv F
  0.333333 -0.444444 -0.111111    0.00137174  24 t-inv F
 -0.444444  0.111111  0.333333    0.00137174  24 t-inv F
  0.444444 -0.111111 -0.333333    0.00137174  24 t-inv F
 -0.111111  0.333333  0.444444    0.00137174  24 t-inv F
  0.111111 -0.333333 -0.444444    0.00137174  24 t-inv F
 -0.444444 -0.333333  0.111111    0.00137174  24 t-inv F
  0.444444  0.333333 -0.111111    0.00137174  24 t-inv F
 -0.111111 -0.444444  0.333333    0.00137174  24 t-inv F
  0.111111  0.444444 -0.333333    0.00137174  24 t-inv F
 -0.333333 -0.111111  0.444444    0.00137174  24 t-inv F
  0.333333  0.111111 -0.444444    0.00137174  24 t-inv F
  0.333333 -0.444444  0.111111    0.00137174  24 t-inv F
 -0.333333  0.444444 -0.111111    0.00137174  24 t-inv F
  0.444444 -0.111111  0.333333    0.00137174  24 t-inv F
 -0.444444  0.111111 -0.333333    0.00137174  24 t-inv F
  0.111111 -0.333333  0.444444    0.00137174  24 t-inv F
 -0.111111  0.333333 -0.444444    0.00137174  24 t-inv F
  0.111111 -0.444444 -0.333333    0.00137174  24 t-inv F
 -0.111111  0.444444  0.333333    0.00137174  24 t-inv F
  0.333333 -0.111111 -0.444444    0.00137174  24 t-inv F
 -0.333333  0.111111  0.444444    0.00137174  24 t-inv F
  0.444444 -0.333333 -0.111111    0.00137174  24 t-inv F
 -0.444444  0.333333  0.111111    0.00137174  24 t-inv F
  0.111111  0.333333 -0.444444    0.00137174  24 t-inv F
 -0.111111 -0.333333  0.444444    0.00137174  24 t-inv F
  0.333333  0.444444 -0.111111    0.00137174  24 t-inv F
 -0.333333 -0.444444  0.111111    0.00137174  24 t-inv F
  0.444444  0.111111 -0.333333    0.00137174  24 t-inv F
 -0.444444 -0.111111  0.333333    0.00137174  24 t-inv F
 -0.333333  0.111111 -0.444444    0.00137174  24 t-inv F
  0.333333 -0.111111  0.444444    0.00137174  24 t-inv F
 -0.444444  0.333333 -0.111111    0.00137174  24 t-inv F
  0.444444 -0.333333  0.111111    0.00137174  24 t-inv F
 -0.111111  0.444444 -0.333333    0.00137174  24 t-inv F
  0.111111 -0.444444  0.333333    0.00137174  24 t-inv F
 -0.444444 -0.111111 -0.333333    0.00137174  24 t-inv F
  0.444444  0.111111  0.333333    0.00137174  24 t-inv F
 -0.333333 -0.444444 -0.111111    0.00137174  24 t-inv F
  0.333333  0.444444  0.111111    0.00137174  24 t-inv F
 -0.111111 -0.333333 -0.444444    0.00137174  24 t-inv F
  0.111111  0.333333  0.444444    0.00137174  24 t-inv F
 -0.444444 -0.444444 -0.111111    0.00137174  25 t-inv F
  0.111111  0.444444  0.444444    0.00137174  25 t-inv F
 -0.111111 -0.444444 -0.444444    0.00137174  25 t-inv F
  0.444444  0.111111  0.444444    0.00137174  25 t-inv F
 -0.444444 -0.111111 -0.444444    0.00137174  25 t-inv F
 -0.444444  0.444444  0.111111    0.00137174  25 t-inv F
  0.444444 -0.444444 -0.111111    0.00137174  25 t-inv F
 -0.444444  0.111111  0.444444    0.00137174  25 t-inv F
  0.444444 -0.111111 -0.444444    0.00137174  25 t-inv F
 -0.111111  0.444444  0.444444    0.00137174  25 t-inv F
  0.111111 -0.444444 -0.444444    0.00137174  25 t-inv F
 -0.444444 -0.444444  0.111111    0.00137174  25 t-inv F
  0.444444  0.444444 -0.111111    0.00137174  25 t-inv F
 -0.111111 -0.444444  0.444444    0.00137174  25 t-inv F
  0.111111  0.444444 -0.444444    0.00137174  25 t-inv F
 -0.444444 -0.111111  0.444444    0.00137174  25 t-inv F
  0.444444  0.111111 -0.444444    0.00137174  25 t-inv F
  0.444444 -0.444444  0.111111    0.00137174  25 t-inv F
 -0.444444  0.444444 -0.111111    0.00137174  25 t-inv F
  0.444444 -0.111111  0.444444    0.00137174  25 t-inv F
 -0.444444  0.111111 -0.444444    0.00137174  25 t-inv F
  0.111111 -0.444444  0.444444    0.00137174  25 t-inv F
 -0.111111  0.444444 -0.444444    0.00137174  25 t-inv F
 -0.222222 -0.222222 -0.222222    0.00137174  26 t-inv F
 -0.222222  0.222222  0.222222    0.00137174  26 t-inv F
  0.222222 -0.222222 -0.222222    0.00137174  26 t-inv F
 -0.222222 -0.222222  0.222222    0.00137174  26 t-inv F
  0.222222  0.222222 -0.222222    0.00137174  26 t-inv F
  0.222222 -0.222222  0.222222    0.00137174  26 t-inv F
 -0.222222  0.222222 -0.222222    0.00137174  26 t-inv F
 -0.333333 -0.222222 -0.222222    0.00137174  27 t-inv F
  0.222222  0.333333  0.222222    0.00137174  27 t-inv F
 -0.222222 -0.333333 -0.222222    0.00137174  27 t-inv F
  0.222222  0.222222  0.333333    0.00137174  27 t-inv F
 -0.222222 -0.222222 -0.333333    0.00137174  27 t-inv F
 -0.222222  0.333333  0.222222    0.00137174  27 t-inv F
  0.222222 -0.333333 -0.222222    0.00137174  27 t-inv F
 -0.333333  0.222222  0.222222    0.00137174  27 t-inv F
  0.333333 -0.222222 -0.222222    0.00137174  27 t-inv F
 -0.222222  0.222222  0.333333    0.00137174  27 t-inv F
  0.222222 -0.222222 -0.333333    0.00137174  27 t-inv F
 -0.333333 -0.222222  0.222222    0.00137174  27 t-inv F
  0.333333  0.222222 -0.222222    0.00137174  27 t-inv F
 -0.222222 -0.333333  0.222222    0.00137174  27 t-inv F
  0.222222  0.333333 -0.222222    0.00137174  27 t-inv F
 -0.222222 -0.222222  0.333333    0.00137174  27 t-inv F
  0.222222  0.222222 -0.333333    0.00137174  27 t-inv F
  0.222222 -0.333333  0.222222    0.00137174  27 t-inv F
 -0.222222  0.333333 -0.222222    0.00137174  27 t-inv F
  0.333333 -0.222222  0.222222    0.00137174  27 t-inv F
 -0.333333  0.222222 -0.222222    0.00137174  27 t-inv F
  0.222222 -0.222222  0.333333    0.00137174  27 t-inv F
 -0.222222  0.222222 -0.333333    0.00137174  27 t-inv F
 -0.444444 -0.222222 -0.222222    0.00137174  28 t-inv F
  0.222222  0.444444  0.222222    0.00137174  28 t-inv F
 -0.222222 -0.444444 -0.222222    0.00137174  28 t-inv F
  0.222222  0.222222  0.444444    0.00137174  28 t-inv F
 -0.222222 -0.222222 -0.444444    0.00137174  28 t-inv F
 -0.222222  0.444444  0.222222    0.00137174  28 t-inv F
  0.222222 -0.444444 -0.222222    0.00137174  28 t-inv F
 -0.444444  0.222222  0.222222    0.00137174  28 t-inv F
  0.444444 -0.222222 -0.222222    0.00137174  28 t-inv F
 -0.222222  0.222222  0.444444    0.00137174  28 t-inv F
  0.222222 -0.222222 -0.444444    0.00137174  28 t-inv F
 -0.444444 -0.222222  0.222222    0.00137174  28 t-inv F
  0.444444  0.222222 -0.222222    0.00137174  28 t-inv F
 -0.222222 -0.444444  0.222222    0.00137174  28 t-inv F
  0.222222  0.444444 -0.222222    0.00137174  28 t-inv F
 -0.222222 -0.222222  0.444444    0.00137174  28 t-inv F
  0.222222  0.222222 -0.444444    0.00137174  28 t-inv F
  0.222222 -0.444444  0.222222    0.00137174  28 t-inv F
 -0.222222  0.444444 -0.222222    0.00137174  28 t-inv F
  0.444444 -0.222222  0.222222    0.00137174  28 t-inv F
 -0.444444  0.222222 -0.222222    0.00137174  28 t-inv F
  0.222222 -0.222222  0.444444    0.00137174  28 t-inv F
 -0.222222  0.222222 -0.444444    0.00137174  28 t-inv F
 -0.333333 -0.333333 -0.222222    0.00137174  29 t-inv F
  0.222222  0.333333  0.333333    0.00137174  29 t-inv F
 -0.222222 -0.333333 -0.333333    0.00137174  29 t-inv F
  0.333333  0.222222  0.333333    0.00137174  29 t-inv F
 -0.333333 -0.222222 -0.333333    0.00137174  29 t-inv F
 -0.333333  0.333333  0.222222    0.00137174  29 t-inv F
  0.333333 -0.333333 -0.222222    0.00137174  29 t-inv F
 -0.333333  0.222222  0.333333    0.00137174  29 t-inv F
  0.333333 -0.222222 -0.333333    0.00137174  29 t-inv F
 -0.222222  0.333333  0.333333    0.00137174  29 t-inv F
  0.222222 -0.333333 -0.333333    0.00137174  29 t-inv F
 -0.333333 -0.333333  0.222222    0.00137174  29 t-inv F
  0.333333  0.333333 -0.222222    0.00137174  29 t-inv F
 -0.222222 -0.333333  0.333333    0.00137174  29 t-inv F
  0.222222  0.333333 -0.333333    0.00137174  29 t-inv F
 -0.333333 -0.222222  0.333333    0.00137174  29 t-inv F
  0.333333  0.222222 -0.333333    0.00137174  29 t-inv F
  0.333333 -0.333333  0.222222    0.00137174  29 t-inv F
 -0.333333  0.333333 -0.222222    0.00137174  29 t-inv F
  0.333333 -0.222222  0.333333    0.00137174  29 t-inv F
 -0.333333  0.222222 -0.333333    0.00137174  29 t-inv F
  0.222222 -0.333333  0.333333    0.00137174  29 t-inv F
 -0.222222  0.333333 -0.333333    0.00137174  29 t-inv F
 -0.444444 -0.333333 -0.222222    0.00137174  30 t-inv F
  0.222222  0.444444  0.333333    0.00137174  30 t-inv F
 -0.222222 -0.444444 -0.333333    0.00137174  30 t-inv F
  0.333333  0.222222  0.444444    0.00137174  30 t-inv F
 -0.333333 -0.222222 -0.444444    0.00137174  30 t-inv F
 -0.333333  0.444444  0.222222    0.00137174  30 t-inv F
  0.333333 -0.444444 -0.222222    0.00137174  30 t-inv F
 -0.444444  0.222222  0.333333    0.00137174  30 t-inv F
  0.444444 -0.222222 -0.333333    0.00137174  30 t-inv F
 -0.222222  0.333333  0.444444    0.00137174  30 t-inv F
  0.222222 -0.333333 -0.444444    0.00137174  30 t-inv F
 -0.444444 -0.333333  0.222222    0.00137174  30 t-inv F
  0.444444  0.333333 -0.222222    0.00137174  30 t-inv F
 -0.222222 -0.444444  0.333333    0.00137174  30 t-inv F
  0.222222  0.444444 -0.333333    0.00137174  30 t-inv F
 -0.333333 -0.222222  0.444444    0.00137174  30 t-inv F
  0.333333  0.222222 -0.444444    0.00137174  30 t-inv F
  0.333333 -0.444444  0.222222    0.00137174  30 t-inv F
 -0.333333  0.444444 -0.222222    0.00137174  30 t-inv F
  0.444444 -0.222222  0.333333    0.00137174  30 t-inv F
 -0.444444  0.222222 -0.333333    0.00137174  30 t-inv F
  0.222222 -0.333333  0.444444    0.00137174  30 t-inv F
 -0.222222  0.333333 -0.444444    0.00137174  30 t-inv F
  0.222222 -0.444444 -0.333333    0.00137174  30 t-inv F
 -0.222222  0.444444  0.333333    0.00137174  30 t-inv F
  0.333333 -0.222222 -0.444444    0.00137174  30 t-inv F
 -0.333333  0.222222  0.444444    0.00137174  30 t-inv F
  0.444444 -0.333333 -0.222222    0.00137174  30 t-inv F
 -0.444444  0.333333  0.222222    0.00137174  30 t-inv F
  0.222222  0.333333 -0.444444    0.00137174  30 t-inv F
 -0.222222 -0.333333  0.444444    0.00137174  30 t-inv F
  0.333333  0.444444 -0.222222    0.00137174  30 t-inv F
 -0.333333 -0.444444  0.222222    0.00137174  30 t-inv F
  0.444444  0.222222 -0.333333    0.00137174  30 t-inv F
 -0.444444 -0.222222  0.333333    0.00137174  30 t-inv F
 -0.333333  0.222222 -0.444444    0.00137174  30 t-inv F
  0.333333 -0.222222  0.444444    0.00137174  30 t-inv F
 -0.444444  0.333333 -0.222222    0.00137174  30 t-inv F
  0.444444 -0.333333  0.222222    0.00137174  30 t-inv F
 -0.222222  0.444444 -0.333333    0.00137174  30 t-inv F
  0.222222 -0.444444  0.333333    0.00137174  30 t-inv F
 -0.444444 -0.222222 -0.333333    0.00137174  30 t-inv F
  0.444444  0.222222  0.333333    0.00137174  30 t-inv F
 -0.333333 -0.444444 -0.222222    0.00137174  30 t-inv F
  0.333333  0.444444  0.222222    0.00137174  30 t-inv F
 -0.222222 -0.333333 -0.444444    0.00137174  30 t-inv F
  0.222222  0.333333  0.444444    0.00137174  30 t-inv F
 -0.444444 -0.444444 -0.222222    0.00137174  31 t-inv F
  0.222222  0.444444  0.444444    0.00137174  31 t-inv F
 -0.222222 -0.444444 -0.444444    0.00137174  31 t-inv F
  0.444444  0.222222  0.444444    0.00137174  31 t-inv F
 -0.444444 -0.222222 -0.444444    0.00137174  31 t-inv F
 -0.444444  0.444444  0.222222    0.00137174  31 t-inv F
  0.444444 -0.444444 -0.222222    0.00137174  31 t-inv F
 -0.444444  0.222222  0.444444    0.00137174  31 t-inv F
  0.444444 -0.222222 -0.444444    0.00137174  31 t-inv F
 -0.222222  0.444444  0.444444    0.00137174  31 t-inv F
  0.222222 -0.444444 -0.444444    0.00137174  31 t-inv F
 -0.444444 -0.444444  0.222222    0.00137174  31 t-inv F
  0.444444  0.444444 -0.222222    0.00137174  31 t-inv F
 -0.222222 -0.444444  0.444444    0.00137174  31 t-inv F
  0.222222  0.444444 -0.444444    0.00137174  31 t-inv F
 -0.444444 -0.222222  0.444444    0.00137174  31 t-inv F
  0.444444  0.222222 -0.444444    0.00137174  31 t-inv F
  0.444444 -0.444444  0.222222    0.00137174  31 t-inv F
 -0.444444  0.444444 -0.222222    0.00137174  31 t-inv F
  0.444444 -0.222222  0.444444    0.00137174  31 t-inv F
 -0.444444  0.222222 -0.444444    0.00137174  31 t-inv F
  0.222222 -0.444444  0.444444    0.00137174  31 t-inv F
 -0.222222  0.444444 -0.444444    0.00137174  31 t-inv F
 -0.333333 -0.333333 -0.333333    0.00137174  32 t-inv F
 -0.333333  0.333333  0.333333    0.00137174  32 t-inv F
  0.333333 -0.333333 -0.333333    0.00137174  32 t-inv F
 -0.333333 -0.333333  0.333333    0.00137174  32 t-inv F
  0.333333  0.333333 -0.333333    0.00137174  32 t-inv F
  0.333333 -0.333333  0.333333    0.00137174  32 t-inv F
 -0.333333  0.333333 -0.333333    0.00137174  32 t-inv F
 -0.444444 -0.333333 -0.333333    0.00137174  33 t-inv F
  0.333333  0.444444  0.333333    0.00137174  33 t-inv F
 -0.333333 -0.444444 -0.333333    0.00137174  33 t-inv F
  0.333333  0.333333  0.444444    0.00137174  33 t-inv F
 -0.333333 -0.333333 -0.444444    0.00137174  33 t-inv F
 -0.333333  0.444444  0.333333    0.00137174  33 t-inv F
  0.333333 -0.444444 -0.333333    0.00137174  33 t-inv F
 -0.444444  0.333333  0.333333    0.00137174  33 t-inv F
  0.444444 -0.333333 -0.333333    0.00137174  33 t-inv F
 -0.333333  0.333333  0.444444    0.00137174  33 t-inv F
  0.333333 -0.333333 -0.444444    0.00137174  33 t-inv F
 -0.444444 -0.333333  0.333333    0.00137174  33 t-inv F
  0.444444  0.333333 -0.333333    0.00137174  33 t-inv F
 -0.333333 -0.444444  0.333333    0.00137174  33 t-inv F
  0.333333  0.444444 -0.333333    0.00137174  33 t-inv F
 -0.333333 -0.333333  0.444444    0.00137174  33 t-inv F
  0.333333  0.333333 -0.444444    0.00137174  33 t-inv F
  0.333333 -0.444444  0.333333    0.00137174  33 t-inv F
 -0.333333  0.444444 -0.333333    0.00137174  33 t-inv F
  0.444444 -0.333333  0.333333    0.00137174  33 t-inv F
 -0.444444  0.333333 -0.333333    0.00137174  33 t-inv F
  0.333333 -0.333333  0.444444    0.00137174  33 t-inv F
 -0.333333  0.333333 -0.444444    0.00137174  33 t-inv F
 -0.444444 -0.444444 -0.333333    0.00137174  34 t-inv F
  0.333333  0.444444  0.444444    0.00137174  34 t-inv F
 -0.333333 -0.444444 -0.444444    0.00137174  34 t-inv F
  0.444444  0.333333  0.444444    0.00137174  34 t-inv F
 -0.444444 -0.333333 -0.444444    0.00137174  34 t-inv F
 -0.444444  0.444444  0.333333    0.00137174  34 t-inv F
  0.444444 -0.444444 -0.333333    0.00137174  34 t-inv F
 -0.444444  0.333333  0.444444    0.00137174  34 t-inv F
  0.444444 -0.333333 -0.444444    0.00137174  34 t-inv F
 -0.333333  0.444444  0.444444    0.00137174  34 t-inv F
  0.333333 -0.444444 -0.444444    0.00137174  34 t-inv F
 -0.444444 -0.444444  0.333333    0.00137174  34 t-inv F
  0.444444  0.444444 -0.333333    0.00137174  34 t-inv F
 -0.333333 -0.444444  0.444444    0.00137174  34 t-inv F
  0.333333  0.444444 -0.444444    0.00137174  34 t-inv F
 -0.444444 -0.333333  0.444444    0.00137174  34 t-inv F
  0.444444  0.333333 -0.444444    0.00137174  34 t-inv F
  0.444444 -0.444444  0.333333    0.00137174  34 t-inv F
 -0.444444  0.444444 -0.333333    0.00137174  34 t-inv F
  0.444444 -0.333333  0.444444    0.00137174  34 t-inv F
 -0.444444  0.333333 -0.444444    0.00137174  34 t-inv F
  0.333333 -0.444444  0.444444    0.00137174  34 t-inv F
 -0.333333  0.444444 -0.444444    0.00137174  34 t-inv F
 -0.444444 -0.444444 -0.444444    0.00137174  35 t-inv F
 -0.444444  0.444444  0.444444    0.00137174  35 t-inv F
  0.444444 -0.444444 -0.444444    0.00137174  35 t-inv F
 -0.444444 -0.444444  0.444444    0.00137174  35 t-inv F
  0.444444  0.444444 -0.444444    0.00137174  35 t-inv F
  0.444444 -0.444444  0.444444    0.00137174  35 t-inv F
 -0.444444  0.444444 -0.444444    0.00137174  35 t-inv F


--------------------------------------------------------------------------------------------------------




 Dimension of arrays:
   k-points           NKPTS =     35   k-points in BZ     NKDIM =     35   number of bands    NBANDS=     16
   number of dos      NEDOS =    301   number of ions     NIONS =      4
   non local maximal  LDIM  =      4   non local SUM 2l+1 LMDIM =      8
   total plane-waves  NPLWV =  32768
   max r-space proj   IRMAX =      1   max aug-charges    IRDMAX=  19395
   dimension x,y,z NGX =    32 NGY =   32 NGZ =   32
   dimension x,y,z NGXF=    64 NGYF=   64 NGZF=   64
   support grid    NGXF=    64 NGYF=   64 NGZF=   64
   ions per type =               4
 NGX,Y,Z   is equivalent  to a cutoff of  13.14, 13.14, 13.14 a.u.
 NGXF,Y,Z  is equivalent  to a cutoff of  26.27, 26.27, 26.27 a.u.


 I would recommend the setting:
   dimension x,y,z NGX =    31 NGY =   31 NGZ =   31
 SYSTEM =  Al                                      
 POSCAR =  Al                                      

 Startparameter for this run:
   NWRITE =      2    write-flag & timer
   PREC   = normal    normal or accurate (medium, high low for compatibility)
   ISTART =      0    job   : 0-new  1-cont  2-samecut
   ICHARG =      2    charge: 1-file 2-atom 10-const
   ISPIN  =      1    spin polarized calculation?
   LNONCOLLINEAR =      F non collinear calculations
   LSORBIT =      F    spin-orbit coupling
   INIWAV =      1    electr: 0-lowe 1-rand  2-diag
   LASPH  =      F    aspherical Exc in radial PAW
   METAGGA=      F    non-selfconsistent MetaGGA calc.

 Electronic Relaxation 1
   ENCUT  = 1000.0 eV  73.50 Ry    8.57 a.u.  10.44 10.44 10.44*2*pi/ulx,y,z
   ENINI  = 1000.0     initial cutoff
   ENAUG  =  291.1 eV  augmentation charge cutoff
   NELM   =     60;   NELMIN=  2; NELMDL= -5     # of ELM steps 
   EDIFF  = 0.1E-05   stopping-criterion for ELM
   LREAL  =      F    real-space projection
   NLSPLINE    = F    spline interpolate recip. space projectors
   LCOMPAT=      F    compatible to vasp.4.4
   GGA_COMPAT  = T    GGA compatible to vasp.4.4-vasp.4.6
   LMAXPAW     = -100 max onsite density
   LMAXMIX     =    2 max onsite mixed and CHGCAR
   VOSKOWN=      0    Vosko Wilk Nusair interpolation
   ROPT   =    0.00000
 Ionic relaxation
   EDIFFG = 0.1E-04   stopping-criterion for IOM
   NSW    =     85    number of steps for IOM
   NBLOCK =      1;   KBLOCK =      1    inner block; outer block 
   IBRION =      6    ionic relax: 0-MD 1-quasi-New 2-CG
   NFREE  =      2    steps in history (QN), initial steepest desc. (CG)
   ISIF   =      3    stress and relaxation
   IWAVPR =     11    prediction:  0-non 1-charg 2-wave 3-comb
   ISYM   =      2    0-nonsym 1-usesym 2-fastsym
   LCORR  =      T    Harris-Foulkes like correction to forces

   POTIM  = 0.0150    time-step for ionic-motion
   TEIN   =    0.0    initial temperature
   TEBEG  =    0.0;   TEEND  =   0.0 temperature during run
   SMASS  =  -3.00    Nose mass-parameter (am)
   estimated Nose-frequenzy (Omega)   =  0.10E-29 period in steps =****** mass=  -0.375E-27a.u.
   SCALEE = 1.0000    scale energy and forces
   NPACO  =    256;   APACO  = 16.0  distance and # of slots for P.C.
   PSTRESS=    0.0 pullay stress

  Mass of Ions in am
   POMASS =  26.98
  Ionic Valenz
   ZVAL   =   3.00
  Atomic Wigner-Seitz radii
   RWIGS  =  -1.00
  virtual crystal weights 
   VCA    =   1.00
   NELECT =      12.0000    total number of electrons
   NUPDOWN=      -1.0000    fix difference up-down

 DOS related values:
   EMIN   =  10.00;   EMAX   =-10.00  energy-range for DOS
   EFERMI =   0.00
   ISMEAR =    -1;   SIGMA  =   0.20  broadening in eV -4-tet -1-fermi 0-gaus

 Electronic relaxation 2 (details)
   IALGO  =     38    algorithm
   LDIAG  =      T    sub-space diagonalisation (order eigenvalues)
   LSUBROT=      F    optimize rotation matrix (better conditioning)
   TURBO    =      0    0=normal 1=particle mesh
   IRESTART =      0    0=no restart 2=restart with 2 vectors
   NREBOOT  =      0    no. of reboots
   NMIN     =      0    reboot dimension
   EREF     =   0.00    reference energy to select bands
   IMIX   =      4    mixing-type and parameters
     AMIX     =   0.40;   BMIX     =  1.00
     AMIX_MAG =   1.60;   BMIX_MAG =  1.00
     AMIN     =   0.10
     WC   =   100.;   INIMIX=   1;  MIXPRE=   1;  MAXMIX= -45

 Intra band minimization:
   WEIMIN = 0.0010     energy-eigenvalue tresh-hold
   EBREAK =  0.16E-07  absolut break condition
   DEPER  =   0.30     relativ break condition  

   TIME   =   0.40     timestep for ELM

  volume/ion in A,a.u.               =      16.61       112.07
  Fermi-wavevector in a.u.,A,eV,Ry     =   0.925437  1.748822 11.652488  0.856434
  Thomas-Fermi vector in A             =   2.051291
 
 Write flags
   LWAVE  =      T    write WAVECAR
   LCHARG =      T    write CHGCAR
   LVTOT  =      F    write LOCPOT, total local potential
   LVHAR  =      F    write LOCPOT, Hartree potential only
   LELF   =      F    write electronic localiz. function (ELF)
   LORBIT =      0    0 simple, 1 ext, 2 COOP (PROOUT)


 Dipole corrections
   LMONO  =      F    monopole corrections only (constant potential shift)
   LDIPOL =      F    correct potential (dipole corrections)
   IDIPOL =      0    1-x, 2-y, 3-z, 4-all directions 
   EPSILON=  1.0000000 bulk dielectric constant

 Exchange correlation treatment:
   GGA     =    --    GGA type
   LEXCH   =     8    internal setting for exchange type
   VOSKOWN=      0    Vosko Wilk Nusair interpolation
   LHFCALC =     F    Hartree Fock is set to
   LHFONE  =     F    Hartree Fock one center treatment
   AEXX    =    0.0000 exact exchange contribution

 Linear response parameters
   LEPSILON=     F    determine dielectric tensor
   LRPA    =     F    only Hartree local field effects (RPA)
   LNABLA  =     F    use nabla operator in PAW spheres
   LVEL    =     F    velocity operator in full k-point grid
   LINTERFAST=   F  fast interpolation
   KINTER  =     0    interpolate to denser k-point grid
   CSHIFT  =0.1000    complex shift for real part using Kramers Kronig
   OMEGAMAX=  -1.0    maximum frequency
   DEG_THRESHOLD= 0.2000000E-02 threshold for treating states as degnerate
   RTIME   =    0.100 relaxation time in fs

 Orbital magnetization related:
   ORBITALMAG=     F  switch on orbital magnetization
   LCHIMAG   =     F  perturbation theory with respect to B field
   DQ        =  0.001000  dq finite difference perturbation B field



--------------------------------------------------------------------------------------------------------


 finite differences with symmetry
 charge density and potential will be updated during run
 non-spin polarized calculation
 Variant of blocked Davidson
 Davidson routine will perform the subspace rotation
 perform sub-space diagonalisation
    after iterative eigenvector-optimisation
 modified Broyden-mixing scheme, WC =      100.0
 initial mixing is a Kerker type mixing with AMIX =  0.4000 and BMIX =      1.0000
 Hartree-type preconditioning will be used
 using additional bands           10
 reciprocal scheme for non local part
 use partial core corrections
 calculate Harris-corrections to forces 
   (improved forces if not selfconsistent)
 use gradient corrections 
 use of overlap-Matrix (Vanderbilt PP)
 Fermi-smearing in eV        SIGMA  =   0.20


--------------------------------------------------------------------------------------------------------


  energy-cutoff  :     1000.00
  volume of cell :       66.43
      direct lattice vectors                 reciprocal lattice vectors
     4.050000191  0.000000000  0.000000000     0.246913569  0.000000000  0.000000000
     0.000000000  4.050000191  0.000000000     0.000000000  0.246913569  0.000000000
     0.000000000  0.000000000  4.050000191     0.000000000  0.000000000  0.246913569

  length of vectors
     4.050000191  4.050000191  4.050000191     0.246913569  0.246913569  0.246913569


 
 k-points in units of 2pi/SCALE and weight: Automatic mesh                          
   0.00000000  0.00000000  0.00000000       0.001
   0.02743484  0.00000000  0.00000000       0.008
   0.05486968  0.00000000  0.00000000       0.008
   0.08230452  0.00000000  0.00000000       0.008
   0.10973936  0.00000000  0.00000000       0.008
   0.02743484  0.02743484  0.00000000       0.016
   0.05486968  0.02743484  0.00000000       0.033
   0.08230452  0.02743484  0.00000000       0.033
   0.10973936  0.02743484  0.00000000       0.033
   0.05486968  0.05486968  0.00000000       0.016
   0.08230452  0.05486968  0.00000000       0.033
   0.10973936  0.05486968  0.00000000       0.033
   0.08230452  0.08230452  0.00000000       0.016
   0.10973936  0.08230452  0.00000000       0.033
   0.10973936  0.10973936  0.00000000       0.016
   0.02743484  0.02743484  0.02743484       0.011
   0.05486968  0.02743484  0.02743484       0.033
   0.08230452  0.02743484  0.02743484       0.033
   0.10973936  0.02743484  0.02743484       0.033
   0.05486968  0.05486968  0.02743484       0.033
   0.08230452  0.05486968  0.02743484       0.066
   0.10973936  0.05486968  0.02743484       0.066
   0.08230452  0.08230452  0.02743484       0.033
   0.10973936  0.08230452  0.02743484       0.066
   0.10973936  0.10973936  0.02743484       0.033
   0.05486968  0.05486968  0.05486968       0.011
   0.08230452  0.05486968  0.05486968       0.033
   0.10973936  0.05486968  0.05486968       0.033
   0.08230452  0.08230452  0.05486968       0.033
   0.10973936  0.08230452  0.05486968       0.066
   0.10973936  0.10973936  0.05486968       0.033
   0.08230452  0.08230452  0.08230452       0.011
   0.10973936  0.08230452  0.08230452       0.033
   0.10973936  0.10973936  0.08230452       0.033
   0.10973936  0.10973936  0.10973936       0.011
 
 k-points in reciprocal lattice and weights: Automatic mesh                          
   0.00000000  0.00000000  0.00000000       0.001
   0.11111111  0.00000000  0.00000000       0.008
   0.22222222  0.00000000  0.00000000       0.008
   0.33333333  0.00000000  0.00000000       0.008
   0.44444444  0.00000000  0.00000000       0.008
   0.11111111  0.11111111  0.00000000       0.016
   0.22222222  0.11111111  0.00000000       0.033
   0.33333333  0.11111111  0.00000000       0.033
   0.44444444  0.11111111  0.00000000       0.033
   0.22222222  0.22222222  0.00000000       0.016
   0.33333333  0.22222222  0.00000000       0.033
   0.44444444  0.22222222  0.00000000       0.033
   0.33333333  0.33333333  0.00000000       0.016
   0.44444444  0.33333333  0.00000000       0.033
   0.44444444  0.44444444  0.00000000       0.016
   0.11111111  0.11111111  0.11111111       0.011
   0.22222222  0.11111111  0.11111111       0.033
   0.33333333  0.11111111  0.11111111       0.033
   0.44444444  0.11111111  0.11111111       0.033
   0.22222222  0.22222222  0.11111111       0.033
   0.33333333  0.22222222  0.11111111       0.066
   0.44444444  0.22222222  0.11111111       0.066
   0.33333333  0.33333333  0.11111111       0.033
   0.44444444  0.33333333  0.11111111       0.066
   0.44444444  0.44444444  0.11111111       0.033
   0.22222222  0.22222222  0.22222222       0.011
   0.33333333  0.22222222  0.22222222       0.033
   0.44444444  0.22222222  0.22222222       0.033
   0.33333333  0.33333333  0.22222222       0.033
   0.44444444  0.33333333  0.22222222       0.066
   0.44444444  0.44444444  0.22222222       0.033
   0.33333333  0.33333333  0.33333333       0.011
   0.44444444  0.33333333  0.33333333       0.033
   0.44444444  0.44444444  0.33333333       0.033
   0.44444444  0.44444444  0.44444444       0.011
 
 position of ions in fractional coordinates (direct lattice) 
   0.00000000  0.00000000  0.00000000
   0.00000000  0.50000000  0.50000000
   0.50000000  0.00000000  0.50000000
   0.50000000  0.50000000  0.00000000
 
 position of ions in cartesian coordinates  (Angst):
   0.00000000  0.00000000  0.00000000
   0.00000000  2.02500010  2.02500010
   2.02500010  0.00000000  2.02500010
   2.02500010  2.02500010  0.00000000
 


--------------------------------------------------------------------------------------------------------


 k-point  1 :   0.0000 0.0000 0.0000  plane waves:    4801
 k-point  2 :   0.1111 0.0000 0.0000  plane waves:    4809
 k-point  3 :   0.2222 0.0000 0.0000  plane waves:    4773
 k-point  4 :   0.3333 0.0000 0.0000  plane waves:    4769
 k-point  5 :   0.4444 0.0000 0.0000  plane waves:    4764
 k-point  6 :   0.1111 0.1111 0.0000  plane waves:    4783
 k-point  7 :   0.2222 0.1111 0.0000  plane waves:    4765
 k-point  8 :   0.3333 0.1111 0.0000  plane waves:    4781
 k-point  9 :   0.4444 0.1111 0.0000  plane waves:    4784
 k-point 10 :   0.2222 0.2222 0.0000  plane waves:    4767
 k-point 11 :   0.3333 0.2222 0.0000  plane waves:    4775
 k-point 12 :   0.4444 0.2222 0.0000  plane waves:    4772
 k-point 13 :   0.3333 0.3333 0.0000  plane waves:    4773
 k-point 14 :   0.4444 0.3333 0.0000  plane waves:    4762
 k-point 15 :   0.4444 0.4444 0.0000  plane waves:    4758
 k-point 16 :   0.1111 0.1111 0.1111  plane waves:    4779
 k-point 17 :   0.2222 0.1111 0.1111  plane waves:    4777
 k-point 18 :   0.3333 0.1111 0.1111  plane waves:    4775
 k-point 19 :   0.4444 0.1111 0.1111  plane waves:    4784
 k-point 20 :   0.2222 0.2222 0.1111  plane waves:    4784
 k-point 21 :   0.3333 0.2222 0.1111  plane waves:    4772
 k-point 22 :   0.4444 0.2222 0.1111  plane waves:    4768
 k-point 23 :   0.3333 0.3333 0.1111  plane waves:    4776
 k-point 24 :   0.4444 0.3333 0.1111  plane waves:    4758
 k-point 25 :   0.4444 0.4444 0.1111  plane waves:    4754
 k-point 26 :   0.2222 0.2222 0.2222  plane waves:    4767
 k-point 27 :   0.3333 0.2222 0.2222  plane waves:    4769
 k-point 28 :   0.4444 0.2222 0.2222  plane waves:    4771
 k-point 29 :   0.3333 0.3333 0.2222  plane waves:    4763
 k-point 30 :   0.4444 0.3333 0.2222  plane waves:    4757
 k-point 31 :   0.4444 0.4444 0.2222  plane waves:    4753
 k-point 32 :   0.3333 0.3333 0.3333  plane waves:    4779
 k-point 33 :   0.4444 0.3333 0.3333  plane waves:    4760
 k-point 34 :   0.4444 0.4444 0.3333  plane waves:    4753
 k-point 35 :   0.4444 0.4444 0.4444  plane waves:    4740

 maximum and minimum number of plane-waves per node :      4809     4740

 maximum number of plane-waves:      4809
 maximum index in each direction: 
   IXMAX=   10   IYMAX=   10   IZMAX=   10
   IXMIN=  -10   IYMIN=  -10   IZMIN=  -10

 WARNING: aliasing errors must be expected set NGX to  42 to avoid them
 WARNING: aliasing errors must be expected set NGY to  42 to avoid them
 WARNING: aliasing errors must be expected set NGZ to  42 to avoid them
 aliasing errors are usually negligible using standard VASP settings
 and one can safely disregard these warnings

 serial   3D FFT for wavefunctions
 parallel 3D FFT for charge:
    minimum data exchange during FFTs selected (reduces bandwidth)


 total amount of memory used by VASP on root node    50739. kBytes
========================================================================

   base      :      30000. kBytes
   nonl-proj :      11096. kBytes
   fftplans  :       1270. kBytes
   grid      :       2932. kBytes
   one-center:         12. kBytes
   wavefun   :       5429. kBytes
 
     INWAV:  cpu time    0.0000: real time    0.0002
 Broyden mixing: mesh for mixing (old mesh)
   NGX = 21   NGY = 21   NGZ = 21
  (NGX  = 64   NGY  = 64   NGZ  = 64)
  gives a total of   9261 points

 initial charge density was supplied:
 charge density of overlapping atoms calculated
 number of electron      12.0000000 magnetization 
 keeping initial charge density in first step


--------------------------------------------------------------------------------------------------------


 Maximum index for augmentation-charges         2257 (set IRDMAX)


--------------------------------------------------------------------------------------------------------


 First call to EWALD:  gamma=   0.438
 Maximum number of real-space cells 3x 3x 3
 Maximum number of reciprocal cells 3x 3x 3

 FEWALD executed in parallel
    FEWALD:  cpu time    0.0030: real time    0.0030


----------------------------------------- Iteration    1(   1)  ---------------------------------------


    POTLOK:  cpu time    0.0540: real time    0.0544
    SETDIJ:  cpu time    0.0066: real time    0.0063
     EDDAV:  cpu time    1.2228: real time    1.3114
       DOS:  cpu time    0.0007: real time    0.0007
    --------------------------------------------
      LOOP:  cpu time    1.2847: real time    1.3767

 eigenvalue-minimizations  :  1120
 total energy-change (2. order) : 0.1395812E+02  (-0.6184515E+03)
 number of electron      12.0000000 magnetization 
 augmentation part       12.0000000 magnetization 

 Free energy of the ion-electron system (eV)
  ---------------------------------------------------
  alpha Z        PSCENC =        -0.80898515
  Ewald energy   TEWEN  =      -293.42682510
  -Hartree energ DENC   =        -0.41547193
  -exchange      EXHF   =         0.00000000
  -V(xc)+E(xc)   XCENC  =      -105.00570049
  PAW double counting   =       142.21701965      -14.39593217
  entropy T*S    EENTRO =        -0.14853065
  eigenvalues    EBANDS =        71.78792589
  atomic energy  EATOM  =       214.15461818
  Solvation  Ediel_sol  =         0.00000000
  ---------------------------------------------------
  free energy    TOTEN  =        13.95811824 eV

  energy without entropy =       14.10664889  energy(sigma->0) =       14.03238356


--------------------------------------------------------------------------------------------------------




----------------------------------------- Iteration    1(   2)  ---------------------------------------


     EDDAV:  cpu time    1.4823: real time    1.4857
       DOS:  cpu time    0.0011: real time    0.0009
    --------------------------------------------
      LOOP:  cpu time    1.4841: real time    1.4879

 eigenvalue-minimizations  :  1448
 total energy-change (2. order) :-0.2812724E+02  (-0.2623862E+02)
 number of electron      12.0000000 magnetization 
 augmentation part       12.0000000 magnetization 

 Free energy of the ion-electron system (eV)
  ---------------------------------------------------
  alpha Z        PSCENC =        -0.80898515
  Ewald energy   TEWEN  =      -293.42682510
  -Hartree energ DENC   =        -0.41547193
  -exchange      EXHF   =         0.00000000
  -V(xc)+E(xc)   XCENC  =      -105.00570049
  PAW double counting   =       142.21701965      -14.39593217
  entropy T*S    EENTRO =        -0.23060909
  eigenvalues    EBANDS =        43.74276277
  atomic energy  EATOM  =       214.15461818
  Solvation  Ediel_sol  =         0.00000000
  ---------------------------------------------------
  free energy    TOTEN  =       -14.16912333 eV

  energy without entropy =      -13.93851424  energy(sigma->0) =      -14.05381878


--------------------------------------------------------------------------------------------------------




----------------------------------------- Iteration    1(   3)  ---------------------------------------


     EDDAV:  cpu time    1.6067: real time    1.6070
       DOS:  cpu time    0.0007: real time    0.0007
    --------------------------------------------
      LOOP:  cpu time    1.6086: real time    1.6128

 eigenvalue-minimizations  :  1480
 total energy-change (2. order) :-0.9921179E+00  (-0.9804161E+00)
 number of electron      12.0000000 magnetization 
 augmentation part       12.0000000 magnetization 

 Free energy of the ion-electron system (eV)
  ---------------------------------------------------
  alpha Z        PSCENC =        -0.80898515
  Ewald energy   TEWEN  =      -293.42682510
  -Hartree energ DENC   =        -0.41547193
  -exchange      EXHF   =         0.00000000
  -V(xc)+E(xc)   XCENC  =      -105.00570049
  PAW double counting   =       142.21701965      -14.39593217
  entropy T*S    EENTRO =        -0.22350596
  eigenvalues    EBANDS =        42.74354173
  atomic energy  EATOM  =       214.15461818
  Solvation  Ediel_sol  =         0.00000000
  ---------------------------------------------------
  free energy    TOTEN  =       -15.16124124 eV

  energy without entropy =      -14.93773528  energy(sigma->0) =      -15.04948826


--------------------------------------------------------------------------------------------------------




----------------------------------------- Iteration    1(   4)  ---------------------------------------


     EDDAV:  cpu time    1.4048: real time    1.4051
       DOS:  cpu time    0.0008: real time    0.0006
    --------------------------------------------
      LOOP:  cpu time    1.4063: real time    1.4071

 eigenvalue-minimizations  :  1392
 total energy-change (2. order) :-0.7356671E-02  (-0.7354828E-02)
[...]

 INTERNAL STRAIN TENSOR FOR ION    4 for displacements in x,y,z  (eV/Angst):
          X           Y           Z          XY          YZ          ZX
  --------------------------------------------------------------------------------
  x    -0.00000     0.00000     0.00000     0.00000     0.00000     0.00000
  y     0.00000    -0.00000     0.00000     0.00000     0.00000     0.00000
  z     0.00000     0.00000    -0.00000     0.00000     0.00000     0.00000


--------------------------------------------------------------------------------------------------------


 
 Eigenvectors and eigenvalues of the dynamical matrix
 ----------------------------------------------------
 
 
   1 f  =    9.400569 THz    59.065520 2PiTHz  313.569234 cm-1    38.877644 meV
             X         Y         Z           dx          dy          dz
      0.000000  0.000000  0.000000    -0.492084   -0.088616    0.000000  
      0.000000  2.025000  2.025000    -0.492084    0.088616   -0.000000  
      2.025000  0.000000  2.025000     0.492084   -0.088616    0.000000  
      2.025000  2.025000  0.000000     0.492084    0.088616    0.000000  
 
   2 f  =    9.400569 THz    59.065520 2PiTHz  313.569234 cm-1    38.877644 meV
             X         Y         Z           dx          dy          dz
      0.000000  0.000000  0.000000    -0.000000    0.000000    0.500000  
      0.000000  2.025000  2.025000    -0.000000   -0.000000   -0.500000  
      2.025000  0.000000  2.025000     0.000000    0.000000   -0.500000  
      2.025000  2.025000  0.000000     0.000000   -0.000000    0.500000  
 
   3 f  =    9.400569 THz    59.065520 2PiTHz  313.569234 cm-1    38.877644 meV
             X         Y         Z           dx          dy          dz
      0.000000  0.000000  0.000000     0.088616   -0.492084    0.000000  
      0.000000  2.025000  2.025000     0.088616    0.492084   -0.000000  
      2.025000  0.000000  2.025000    -0.088616   -0.492084   -0.000000  
      2.025000  2.025000  0.000000    -0.088616    0.492084   -0.000000  
 
   4 f  =    5.656485 THz    35.540746 2PiTHz  188.680036 cm-1    23.393351 meV
             X         Y         Z           dx          dy          dz
      0.000000  0.000000  0.000000    -0.142115   -0.005693   -0.018494  
      0.000000  2.025000  2.025000     0.142115   -0.549226   -0.421493  
      2.025000  0.000000  2.025000    -0.011093    0.005693    0.421493  
      2.025000  2.025000  0.000000     0.011093    0.549226    0.018494  
 
   5 f  =    5.656485 THz    35.540746 2PiTHz  188.680036 cm-1    23.393351 meV
             X         Y         Z           dx          dy          dz
      0.000000  0.000000  0.000000     0.015525   -0.078201   -0.426388  
      0.000000  2.025000  2.025000    -0.015525    0.345592   -0.434145  
      2.025000  0.000000  2.025000    -0.062617    0.078201    0.434145  
      2.025000  2.025000  0.000000     0.062617   -0.345592    0.426388  
 
   6 f  =    5.656485 THz    35.540746 2PiTHz  188.680036 cm-1    23.393351 meV
             X         Y         Z           dx          dy          dz
      0.000000  0.000000  0.000000     0.018491   -0.125207    0.540493  
      0.000000  2.025000  2.025000    -0.018491    0.236382   -0.340031  
      2.025000  0.000000  2.025000     0.142658    0.125207    0.340031  
      2.025000  2.025000  0.000000    -0.142658   -0.236382   -0.540493  
 
   7 f  =    5.656485 THz    35.540746 2PiTHz  188.680036 cm-1    23.393351 meV
             X         Y         Z           dx          dy          dz
      0.000000  0.000000  0.000000    -0.013700    0.044712   -0.148547  
      0.000000  2.025000  2.025000     0.013700   -0.021707    0.020683  
      2.025000  0.000000  2.025000     0.689092   -0.044712   -0.020683  
      2.025000  2.025000  0.000000    -0.689092    0.021707    0.148547  
 
   8 f  =    5.656485 THz    35.540746 2PiTHz  188.680036 cm-1    23.393351 meV
             X         Y         Z           dx          dy          dz
      0.000000  0.000000  0.000000     0.679221    0.137337    0.000000  
      0.000000  2.025000  2.025000    -0.679221   -0.109559   -0.088207  
      2.025000  0.000000  2.025000     0.003789   -0.137337    0.088207  
      2.025000  2.025000  0.000000    -0.003789    0.109559    0.000000  
 
   9 f  =    5.656485 THz    35.540746 2PiTHz  188.680036 cm-1    23.393351 meV
             X         Y         Z           dx          dy          dz
      0.000000  0.000000  0.000000     0.133011   -0.676251   -0.060430  
      0.000000  2.025000  2.025000    -0.133011   -0.102791    0.100163  
      2.025000  0.000000  2.025000     0.027252    0.676251   -0.100163  
      2.025000  2.025000  0.000000    -0.027252    0.102791    0.060430  
 
  10 f/i=    0.000001 THz     0.000003 2PiTHz    0.000018 cm-1     0.000002 meV
             X         Y         Z           dx          dy          dz
      0.000000  0.000000  0.000000    -0.019945   -0.050699   -0.497023  
      0.000000  2.025000  2.025000    -0.019945   -0.050699   -0.497023  
      2.025000  0.000000  2.025000    -0.019945   -0.050699   -0.497023  
      2.025000  2.025000  0.000000    -0.019945   -0.050699   -0.497023  
 
  11 f/i=    0.000001 THz     0.000003 2PiTHz    0.000018 cm-1     0.000002 meV
             X         Y         Z           dx          dy          dz
      0.000000  0.000000  0.000000    -0.484548    0.123150    0.006882  
      0.000000  2.025000  2.025000    -0.484548    0.123150    0.006882  
      2.025000  0.000000  2.025000    -0.484548    0.123150    0.006882  
      2.025000  2.025000  0.000000    -0.484548    0.123150    0.006882  
 
  12 f/i=    0.000001 THz     0.000004 2PiTHz    0.000019 cm-1     0.000002 meV
             X         Y         Z           dx          dy          dz
      0.000000  0.000000  0.000000    -0.121719   -0.481937    0.054044  
      0.000000  2.025000  2.025000    -0.121719   -0.481937    0.054044  
      2.025000  0.000000  2.025000    -0.121719   -0.481937    0.054044  
      2.025000  2.025000  0.000000    -0.121719   -0.481937    0.054044  
 


--------------------------------------------------------------------------------------------------------



 ELASTIC MODULI CONTR FROM IONIC RELAXATION (kBar)
 Direction    XX          YY          ZZ          XY          YZ          ZX
 --------------------------------------------------------------------------------
 XX          -0.0000     -0.0000      0.0000     -0.0000     -0.0000      0.0000
 YY          -0.0000     -0.0000     -0.0000     -0.0000     -0.0000     -0.0000
 ZZ          -0.0000     -0.0000     -0.0000     -0.0000      0.0000     -0.0000
 XY          -0.0000     -0.0000      0.0000     -0.0000      0.0000     -0.0000
 YZ          -0.0000     -0.0000      0.0000      0.0000     -0.0000     -0.0000
 ZX          -0.0000     -0.0000     -0.0000     -0.0000     -0.0000     -0.0000
 --------------------------------------------------------------------------------


 TOTAL ELASTIC MODULI (kBar)
 Direction    XX          YY          ZZ          XY          YZ          ZX
 --------------------------------------------------------------------------------
 XX         905.8866    690.7163    690.7163     -0.0000      0.0000      0.0000
 YY         690.7163    905.8866    690.7163      0.0000     -0.0000     -0.0000
 ZZ         690.7163    690.7163    905.8866      0.0000      0.0000     -0.0000
 XY          -0.0000      0.0000      0.0000    336.8752      0.0000     -0.0000
 YZ           0.0000     -0.0000      0.0000      0.0000    336.8752     -0.0000
 ZX           0.0000     -0.0000     -0.0000     -0.0000     -0.0000    336.8752
 --------------------------------------------------------------------------------



--------------------------------------------------------------------------------------------------------


  LATTYP: Found a simple cubic cell.
 ALAT       =     4.0500001907
  
  Lattice vectors:
  
 A1 = (   4.0500001907,   0.0000000000,   0.0000000000)
 A2 = (   0.0000000000,   4.0500001907,   0.0000000000)
 A3 = (   0.0000000000,   0.0000000000,   4.0500001907)


Analysis of symmetry for initial positions (statically):
=====================================================================
 Subroutine PRICEL returns following result:
 
  LATTYP: Found a face centered cubic cell.
 ALAT       =     4.0500001907
  
  Lattice vectors:
  
 A1 = (   2.0250000953,   2.0250000953,   0.0000000000)
 A2 = (   2.0250000953,   0.0000000000,  -2.0250000953)
 A3 = (   0.0000000000,   2.0250000953,  -2.0250000953)
 
   4 primitive cells build up your supercell.
 

 Routine SETGRP: Setting up the symmetry group for a 
 simple cubic supercell.


 Subroutine GETGRP returns: Found 48 space group operations
 (whereof 48 operations were pure point group operations)
 out of a pool of 48 trial point group operations.


The static configuration has the point symmetry O_h .


Analysis of symmetry for dynamics (positions and initial velocities):
=====================================================================
 Subroutine PRICEL returns following result:
 
  LATTYP: Found a face centered cubic cell.
 ALAT       =     4.0500001907
  
  Lattice vectors:
  
 A1 = (   2.0250000953,   2.0250000953,   0.0000000000)
 A2 = (   2.0250000953,   0.0000000000,  -2.0250000953)
 A3 = (   0.0000000000,   2.0250000953,  -2.0250000953)
 
   4 primitive cells build up your supercell.
 

 Routine SETGRP: Setting up the symmetry group for a 
 simple cubic supercell.


 Subroutine GETGRP returns: Found 48 space group operations
 (whereof 48 operations were pure point group operations)
 out of a pool of 48 trial point group operations.


The dynamic configuration has the point symmetry O_h .


 Subroutine INISYM returns: Found 48 space group operations
 (whereof 48 operations are pure point group operations),
 and found     4 'primitive' translations

 
 KPOINTS: Automatic mesh                          

Automatic generation of k-mesh.
 generate k-points for:    9    9    9
Space group operators:
 irot       det(A)        alpha          n_x          n_y          n_z        tau_x        tau_y        tau_z
    1     1.000000     0.000000     1.000000     0.000000     0.000000     0.000000     0.000000     0.000000
    2    -1.000000     0.000000     1.000000     0.000000     0.000000     0.000000     0.000000     0.000000
    3     1.000000   120.000000    -0.577350    -0.577350    -0.577350     0.000000     0.000000     0.000000
    4    -1.000000   120.000000    -0.577350    -0.577350    -0.577350     0.000000     0.000000     0.000000
    5     1.000000   120.000000     0.577350     0.577350     0.577350     0.000000     0.000000     0.000000
    6    -1.000000   120.000000     0.577350     0.577350     0.577350     0.000000     0.000000     0.000000
    7     1.000000    90.000000     0.000000     0.000000    -1.000000     0.000000     0.000000     0.000000
    8    -1.000000    90.000000     0.000000     0.000000    -1.000000     0.000000     0.000000     0.000000
    9     1.000000   180.000000     0.000000     0.707107     0.707107     0.000000     0.000000     0.000000
   10    -1.000000   180.000000     0.000000     0.707107     0.707107     0.000000     0.000000     0.000000
   11     1.000000    90.000000     0.000000     1.000000     0.000000     0.000000     0.000000     0.000000
   12    -1.000000    90.000000     0.000000     1.000000     0.000000     0.000000     0.000000     0.000000
   13     1.000000   179.999999     0.000000     0.000000     1.000000     0.000000     0.000000     0.000000
   14    -1.000000   179.999999     0.000000     0.000000     1.000000     0.000000     0.000000     0.000000
   15     1.000000   120.000000    -0.577350     0.577350     0.577350     0.000000     0.000000     0.000000
   16    -1.000000   120.000000    -0.577350     0.577350     0.577350     0.000000     0.000000     0.000000
   17     1.000000   120.000000    -0.577350     0.577350    -0.577350     0.000000     0.000000     0.000000
   18    -1.000000   120.000000    -0.577350     0.577350    -0.577350     0.000000     0.000000     0.000000
   19     1.000000    90.000000     0.000000     0.000000     1.000000     0.000000     0.000000     0.000000
   20    -1.000000    90.000000     0.000000     0.000000     1.000000     0.000000     0.000000     0.000000
   21     1.000000    90.000000    -1.000000     0.000000     0.000000     0.000000     0.000000     0.000000
   22    -1.000000    90.000000    -1.000000     0.000000     0.000000     0.000000     0.000000     0.000000
   23     1.000000   180.000000     0.707107     0.000000     0.707107     0.000000     0.000000     0.000000
   24    -1.000000   180.000000     0.707107     0.000000     0.707107     0.000000     0.000000     0.000000
   25     1.000000   120.000000     0.577350    -0.577350     0.577350     0.000000     0.000000     0.000000
   26    -1.000000   120.000000     0.577350    -0.577350     0.577350     0.000000     0.000000     0.000000
   27     1.000000   120.000000    -0.577350    -0.577350     0.577350     0.000000     0.000000     0.000000
   28    -1.000000   120.000000    -0.577350    -0.577350     0.577350     0.000000     0.000000     0.000000
   29     1.000000   180.000000     1.000000     0.000000     0.000000     0.000000     0.000000     0.000000
   30    -1.000000   180.000000     1.000000     0.000000     0.000000     0.000000     0.000000     0.000000
   31     1.000000    90.000000     0.000000    -1.000000     0.000000     0.000000     0.000000     0.000000
   32    -1.000000    90.000000     0.000000    -1.000000     0.000000     0.000000     0.000000     0.000000
   33     1.000000   180.000000     0.707107     0.707107     0.000000     0.000000     0.000000     0.000000
   34    -1.000000   180.000000     0.707107     0.707107     0.000000     0.000000     0.000000     0.000000
   35     1.000000    90.000000     1.000000     0.000000     0.000000     0.000000     0.000000     0.000000
   36    -1.000000    90.000000     1.000000     0.000000     0.000000     0.000000     0.000000     0.000000
   37     1.000000   120.000000     0.577350    -0.577350    -0.577350     0.000000     0.000000     0.000000
   38    -1.000000   120.000000     0.577350    -0.577350    -0.577350     0.000000     0.000000     0.000000
   39     1.000000   180.000000     0.000000     1.000000     0.000000     0.000000     0.000000     0.000000
   40    -1.000000   180.000000     0.000000     1.000000     0.000000     0.000000     0.000000     0.000000
   41     1.000000   120.000000     0.577350     0.577350    -0.577350     0.000000     0.000000     0.000000
   42    -1.000000   120.000000     0.577350     0.577350    -0.577350     0.000000     0.000000     0.000000
   43     1.000000   180.000000     0.000000    -0.707107     0.707107     0.000000     0.000000     0.000000
   44    -1.000000   180.000000     0.000000    -0.707107     0.707107     0.000000     0.000000     0.000000
   45     1.000000   180.000000     0.707107    -0.707107     0.000000     0.000000     0.000000     0.000000
   46    -1.000000   180.000000     0.707107    -0.707107     0.000000     0.000000     0.000000     0.000000
   47     1.000000   180.000000     0.707107     0.000000    -0.707107     0.000000     0.000000     0.000000
   48    -1.000000   180.000000     0.707107     0.000000    -0.707107     0.000000     0.000000     0.000000
 
 Subroutine IBZKPT returns following result:
 ===========================================
 
 Found     35 irreducible k-points:
 
 Following reciprocal coordinates:
            Coordinates               Weight
  0.000000  0.000000  0.000000      1.000000
  0.111111  0.000000  0.000000      6.000000
  0.222222  0.000000  0.000000      6.000000
  0.333333  0.000000  0.000000      6.000000
  0.444444  0.000000  0.000000      6.000000
  0.111111  0.111111  0.000000     12.000000
  0.222222  0.111111  0.000000     24.000000
  0.333333  0.111111  0.000000     24.000000
  0.444444  0.111111  0.000000     24.000000
  0.222222  0.222222  0.000000     12.000000
  0.333333  0.222222  0.000000     24.000000
  0.444444  0.222222  0.000000     24.000000
  0.333333  0.333333  0.000000     12.000000
  0.444444  0.333333  0.000000     24.000000
  0.444444  0.444444  0.000000     12.000000
  0.111111  0.111111  0.111111      8.000000
  0.222222  0.111111  0.111111     24.000000
  0.333333  0.111111  0.111111     24.000000
  0.444444  0.111111  0.111111     24.000000
  0.222222  0.222222  0.111111     24.000000
  0.333333  0.222222  0.111111     48.000000
  0.444444  0.222222  0.111111     48.000000
  0.333333  0.333333  0.111111     24.000000
  0.444444  0.333333  0.111111     48.000000
  0.444444  0.444444  0.111111     24.000000
  0.222222  0.222222  0.222222      8.000000
  0.333333  0.222222  0.222222     24.000000
  0.444444  0.222222  0.222222     24.000000
  0.333333  0.333333  0.222222     24.000000
  0.444444  0.333333  0.222222     48.000000
  0.444444  0.444444  0.222222     24.000000
  0.333333  0.333333  0.333333      8.000000
  0.444444  0.333333  0.333333     24.000000
  0.444444  0.444444  0.333333     24.000000
  0.444444  0.444444  0.444444      8.000000
 
 Following cartesian coordinates:
            Coordinates               Weight
  0.000000  0.000000  0.000000      1.000000
  0.027435  0.000000  0.000000      6.000000
  0.054870  0.000000  0.000000      6.000000
  0.082305  0.000000  0.000000      6.000000
  0.109739  0.000000  0.000000      6.000000
  0.027435  0.027435  0.000000     12.000000
  0.054870  0.027435  0.000000     24.000000
  0.082305  0.027435  0.000000     24.000000
  0.109739  0.027435  0.000000     24.000000
  0.054870  0.054870  0.000000     12.000000
  0.082305  0.054870  0.000000     24.000000
  0.109739  0.054870  0.000000     24.000000
  0.082305  0.082305  0.000000     12.000000
  0.109739  0.082305  0.000000     24.000000
  0.109739  0.109739  0.000000     12.000000
  0.027435  0.027435  0.027435      8.000000
  0.054870  0.027435  0.027435     24.000000
  0.082305  0.027435  0.027435     24.000000
  0.109739  0.027435  0.027435     24.000000
  0.054870  0.054870  0.027435     24.000000
  0.082305  0.054870  0.027435     48.000000
  0.109739  0.054870  0.027435     48.000000
  0.082305  0.082305  0.027435     24.000000
  0.109739  0.082305  0.027435     48.000000
  0.109739  0.109739  0.027435     24.000000
  0.054870  0.054870  0.054870      8.000000
  0.082305  0.054870  0.054870     24.000000
  0.109739  0.054870  0.054870     24.000000
  0.082305  0.082305  0.054870     24.000000
  0.109739  0.082305  0.054870     48.000000
  0.109739  0.109739  0.054870     24.000000
  0.082305  0.082305  0.082305      8.000000
  0.109739  0.082305  0.082305     24.000000
  0.109739  0.109739  0.082305     24.000000
  0.109739  0.109739  0.109739      8.000000
 
 writing wavefunctions
     LOOP+:  cpu time   22.1102: real time   22.7224
    4ORBIT:  cpu time    0.0000: real time    0.0000

 total amount of memory used by VASP on root node    50739. kBytes
========================================================================

   base      :      30000. kBytes
   nonl-proj :      11096. kBytes
   fftplans  :       1270. kBytes
   grid      :       2932. kBytes
   one-center:         12. kBytes
   wavefun   :       5429. kBytes
 
  
  
 General timing and accounting informations for this job:
 ========================================================
  
                  Total CPU time used (sec):      578.328
                            User time (sec):      555.728
                          System time (sec):       22.600
                         Elapsed time (sec):      586.228
  
                   Maximum memory used (kb):      206892.
                   Average memory used (kb):           0.
  
                          Minor page faults:       791421
                          Major page faults:            5
                 Voluntary context switches:          543
